MODEL 1
REMARK VINA RESULT:    -9.214      0.000      0.000
REMARK INTER + INTRA:         -13.436
REMARK INTER:                 -12.446
REMARK INTRA:                  -0.990
REMARK UNBOUND:                -0.990
REMARK SMILES COc1cc(OC)cc(-c2cc(C3CC(C)(C)OC(C)(C)C3)nn2-c2ccccc2OC)c1
REMARK SMILES IDX 23 1 24 2 12 3 11 4 10 5 13 6 18 7 15 8 19 9 14 10 22 11
REMARK SMILES IDX 16 12 17 13 20 14 21 15 25 16 30 17 26 18 29 19 27 20 28 21
REMARK SMILES IDX 31 22 32 23 9 24 8 25 33 26 5 27 3 28 4 29 6 30 7 31 2 32
REMARK SMILES IDX 1 33
REMARK H PARENT
ROOT
ATOM      1  N   UNL     1     -40.064  12.260  12.500  1.00  0.00    -0.172 NA
ATOM      2  N   UNL     1     -39.736  10.968  12.325  1.00  0.00    -0.229 N 
ATOM      3  C   UNL     1     -40.767  12.546  11.402  1.00  0.00    +0.067 A 
ATOM      4  C   UNL     1     -40.888  11.446  10.532  1.00  0.00    +0.055 A 
ATOM      5  C   UNL     1     -40.205  10.434  11.161  1.00  0.00    +0.075 A 
ENDROOT
BRANCH   3   6
ATOM      6  C   UNL     1     -41.333  13.943  11.210  1.00  0.00    +0.046 C 
ATOM      7  O   UNL     1     -41.222  16.817  10.859  1.00  0.00    -0.370 OA
ATOM      8  C   UNL     1     -41.515  16.303  12.164  1.00  0.00    +0.064 C 
ATOM      9  C   UNL     1     -41.433  16.000   9.702  1.00  0.00    +0.064 C 
ATOM     10  C   UNL     1     -40.961  14.882  12.364  1.00  0.00    +0.045 C 
ATOM     11  C   UNL     1     -40.876  14.576   9.889  1.00  0.00    +0.045 C 
ATOM     12  C   UNL     1     -43.014  16.392  12.481  1.00  0.00    +0.042 C 
ATOM     13  C   UNL     1     -40.790  17.256  13.131  1.00  0.00    +0.042 C 
ATOM     14  C   UNL     1     -40.635  16.694   8.582  1.00  0.00    +0.042 C 
ATOM     15  C   UNL     1     -42.905  15.995   9.273  1.00  0.00    +0.042 C 
ENDBRANCH   3   6
BRANCH   2  16
ATOM     16  C   UNL     1     -38.979  10.315  13.298  1.00  0.00    +0.107 A 
ATOM     17  C   UNL     1     -39.567   9.887  14.489  1.00  0.00    +0.144 A 
ATOM     18  C   UNL     1     -37.622  10.089  13.070  1.00  0.00    +0.032 A 
ATOM     19  C   UNL     1     -38.796   9.234  15.452  1.00  0.00    +0.049 A 
ATOM     20  C   UNL     1     -36.852   9.436  14.033  1.00  0.00    +0.003 A 
ATOM     21  C   UNL     1     -37.439   9.010  15.224  1.00  0.00    +0.004 A 
BRANCH  17  22
ATOM     22  O   UNL     1     -40.892  10.095  14.736  1.00  0.00    -0.494 OA
ATOM     23  C   UNL     1     -41.229  10.709  15.977  1.00  0.00    +0.278 C 
ENDBRANCH  17  22
ENDBRANCH   2  16
BRANCH   5  24
ATOM     24  C   UNL     1     -39.987   9.069  10.740  1.00  0.00    +0.008 A 
ATOM     25  C   UNL     1     -40.176   8.022  11.641  1.00  0.00    +0.057 A 
ATOM     26  C   UNL     1     -39.586   8.799   9.430  1.00  0.00    +0.057 A 
ATOM     27  C   UNL     1     -39.966   6.704  11.233  1.00  0.00    +0.123 A 
ATOM     28  C   UNL     1     -39.375   7.482   9.024  1.00  0.00    +0.123 A 
ATOM     29  C   UNL     1     -39.565   6.434   9.925  1.00  0.00    +0.092 A 
BRANCH  27  30
ATOM     30  O   UNL     1     -40.152   5.682  12.113  1.00  0.00    -0.497 OA
ATOM     31  C   UNL     1     -39.526   5.802  13.390  1.00  0.00    +0.278 C 
ENDBRANCH  27  30
BRANCH  28  32
ATOM     32  O   UNL     1     -38.984   7.217   7.747  1.00  0.00    -0.497 OA
ATOM     33  C   UNL     1     -39.903   6.506   6.920  1.00  0.00    +0.278 C 
ENDBRANCH  28  32
ENDBRANCH   5  24
TORSDOF 6
ENDMDL
MODEL 2
REMARK VINA RESULT:    -9.206      0.061      2.154
REMARK INTER + INTRA:         -13.425
REMARK INTER:                 -12.421
REMARK INTRA:                  -1.005
REMARK UNBOUND:                -0.990
REMARK SMILES COc1cc(OC)cc(-c2cc(C3CC(C)(C)OC(C)(C)C3)nn2-c2ccccc2OC)c1
REMARK SMILES IDX 23 1 24 2 12 3 11 4 10 5 13 6 18 7 15 8 19 9 14 10 22 11
REMARK SMILES IDX 16 12 17 13 20 14 21 15 25 16 30 17 26 18 29 19 27 20 28 21
REMARK SMILES IDX 31 22 32 23 9 24 8 25 33 26 5 27 3 28 4 29 6 30 7 31 2 32
REMARK SMILES IDX 1 33
REMARK H PARENT
ROOT
ATOM      1  N   UNL     1     -40.053  12.250  12.523  1.00  0.00    -0.172 NA
ATOM      2  N   UNL     1     -39.734  10.957  12.344  1.00  0.00    -0.229 N 
ATOM      3  C   UNL     1     -40.765  12.541  11.432  1.00  0.00    +0.067 A 
ATOM      4  C   UNL     1     -40.901  11.442  10.562  1.00  0.00    +0.055 A 
ATOM      5  C   UNL     1     -40.218  10.426  11.184  1.00  0.00    +0.075 A 
ENDROOT
BRANCH   3   6
ATOM      6  C   UNL     1     -41.325  13.941  11.246  1.00  0.00    +0.046 C 
ATOM      7  O   UNL     1     -41.201  16.815  10.895  1.00  0.00    -0.370 OA
ATOM      8  C   UNL     1     -41.483  16.302  12.202  1.00  0.00    +0.064 C 
ATOM      9  C   UNL     1     -41.429  15.999   9.740  1.00  0.00    +0.064 C 
ATOM     10  C   UNL     1     -40.934  14.878  12.397  1.00  0.00    +0.045 C 
ATOM     11  C   UNL     1     -40.879  14.572   9.920  1.00  0.00    +0.045 C 
ATOM     12  C   UNL     1     -42.977  16.400  12.537  1.00  0.00    +0.042 C 
ATOM     13  C   UNL     1     -40.741  17.251  13.162  1.00  0.00    +0.042 C 
ATOM     14  C   UNL     1     -40.640  16.689   8.611  1.00  0.00    +0.042 C 
ATOM     15  C   UNL     1     -42.906  16.003   9.327  1.00  0.00    +0.042 C 
ENDBRANCH   3   6
BRANCH   2  16
ATOM     16  C   UNL     1     -38.973  10.298  13.310  1.00  0.00    +0.107 A 
ATOM     17  C   UNL     1     -39.558   9.847  14.493  1.00  0.00    +0.144 A 
ATOM     18  C   UNL     1     -37.613  10.090  13.082  1.00  0.00    +0.032 A 
ATOM     19  C   UNL     1     -38.782   9.189  15.449  1.00  0.00    +0.049 A 
ATOM     20  C   UNL     1     -36.837   9.433  14.037  1.00  0.00    +0.003 A 
ATOM     21  C   UNL     1     -37.422   8.983  15.220  1.00  0.00    +0.004 A 
BRANCH  17  22
ATOM     22  O   UNL     1     -40.885  10.036  14.740  1.00  0.00    -0.494 OA
ATOM     23  C   UNL     1     -41.240  10.519  16.033  1.00  0.00    +0.278 C 
ENDBRANCH  17  22
ENDBRANCH   2  16
BRANCH   5  24
ATOM     24  C   UNL     1     -40.012   9.060  10.760  1.00  0.00    +0.008 A 
ATOM     25  C   UNL     1     -39.590   8.789   9.458  1.00  0.00    +0.057 A 
ATOM     26  C   UNL     1     -40.234   8.011  11.653  1.00  0.00    +0.057 A 
ATOM     27  C   UNL     1     -39.390   7.471   9.049  1.00  0.00    +0.123 A 
ATOM     28  C   UNL     1     -40.034   6.693  11.244  1.00  0.00    +0.123 A 
ATOM     29  C   UNL     1     -39.613   6.423   9.942  1.00  0.00    +0.092 A 
BRANCH  27  30
ATOM     30  O   UNL     1     -38.978   7.207   7.779  1.00  0.00    -0.497 OA
ATOM     31  C   UNL     1     -39.888   6.503   6.934  1.00  0.00    +0.278 C 
ENDBRANCH  27  30
BRANCH  28  32
ATOM     32  O   UNL     1     -40.251   5.670  12.115  1.00  0.00    -0.497 OA
ATOM     33  C   UNL     1     -39.488   5.670  13.321  1.00  0.00    +0.278 C 
ENDBRANCH  28  32
ENDBRANCH   5  24
TORSDOF 6
ENDMDL
MODEL 3
REMARK VINA RESULT:    -9.177      1.651      2.632
REMARK INTER + INTRA:         -13.386
REMARK INTER:                 -12.627
REMARK INTRA:                  -0.759
REMARK UNBOUND:                -0.990
REMARK SMILES COc1cc(OC)cc(-c2cc(C3CC(C)(C)OC(C)(C)C3)nn2-c2ccccc2OC)c1
REMARK SMILES IDX 23 1 24 2 12 3 11 4 10 5 13 6 18 7 15 8 19 9 14 10 22 11
REMARK SMILES IDX 16 12 17 13 20 14 21 15 25 16 30 17 26 18 29 19 27 20 28 21
REMARK SMILES IDX 31 22 32 23 9 24 8 25 33 26 5 27 3 28 4 29 6 30 7 31 2 32
REMARK SMILES IDX 1 33
REMARK H PARENT
ROOT
ATOM      1  N   UNL     1     -40.825  12.336  11.967  1.00  0.00    -0.172 NA
ATOM      2  N   UNL     1     -40.187  11.180  11.714  1.00  0.00    -0.229 N 
ATOM      3  C   UNL     1     -40.724  12.997  10.812  1.00  0.00    +0.067 A 
ATOM      4  C   UNL     1     -40.028  12.269   9.828  1.00  0.00    +0.055 A 
ATOM      5  C   UNL     1     -39.691  11.091  10.446  1.00  0.00    +0.075 A 
ENDROOT
BRANCH   3   6
ATOM      6  C   UNL     1     -41.332  14.383  10.679  1.00  0.00    +0.046 C 
ATOM      7  O   UNL     1     -41.309  17.271  10.437  1.00  0.00    -0.370 OA
ATOM      8  C   UNL     1     -41.571  16.700  11.724  1.00  0.00    +0.064 C 
ATOM      9  C   UNL     1     -41.510  16.492   9.252  1.00  0.00    +0.064 C 
ATOM     10  C   UNL     1     -40.973  15.288  11.864  1.00  0.00    +0.045 C 
ATOM     11  C   UNL     1     -40.910  15.079   9.379  1.00  0.00    +0.045 C 
ATOM     12  C   UNL     1     -43.067  16.732  12.062  1.00  0.00    +0.042 C 
ATOM     13  C   UNL     1     -40.860  17.636  12.719  1.00  0.00    +0.042 C 
ATOM     14  C   UNL     1     -40.747  17.251   8.150  1.00  0.00    +0.042 C 
ATOM     15  C   UNL     1     -42.987  16.461   8.840  1.00  0.00    +0.042 C 
ENDBRANCH   3   6
BRANCH   2  16
ATOM     16  C   UNL     1     -40.090  10.216  12.719  1.00  0.00    +0.107 A 
ATOM     17  C   UNL     1     -39.409  10.490  13.906  1.00  0.00    +0.144 A 
ATOM     18  C   UNL     1     -40.683   8.969  12.527  1.00  0.00    +0.032 A 
ATOM     19  C   UNL     1     -39.322   9.515  14.900  1.00  0.00    +0.049 A 
ATOM     20  C   UNL     1     -40.595   7.994  13.521  1.00  0.00    +0.003 A 
ATOM     21  C   UNL     1     -39.914   8.267  14.707  1.00  0.00    +0.004 A 
BRANCH  17  22
ATOM     22  O   UNL     1     -38.822  11.701  14.118  1.00  0.00    -0.494 OA
ATOM     23  C   UNL     1     -39.153  12.377  15.328  1.00  0.00    +0.278 C 
ENDBRANCH  17  22
ENDBRANCH   2  16
BRANCH   5  24
ATOM     24  C   UNL     1     -38.965   9.953   9.929  1.00  0.00    +0.008 A 
ATOM     25  C   UNL     1     -39.378   9.341   8.747  1.00  0.00    +0.057 A 
ATOM     26  C   UNL     1     -37.850   9.469  10.614  1.00  0.00    +0.057 A 
ATOM     27  C   UNL     1     -38.676   8.243   8.248  1.00  0.00    +0.123 A 
ATOM     28  C   UNL     1     -37.149   8.371  10.115  1.00  0.00    +0.123 A 
ATOM     29  C   UNL     1     -37.562   7.758   8.933  1.00  0.00    +0.092 A 
BRANCH  27  30
ATOM     30  O   UNL     1     -39.079   7.645   7.093  1.00  0.00    -0.497 OA
ATOM     31  C   UNL     1     -40.094   6.648   7.198  1.00  0.00    +0.278 C 
ENDBRANCH  27  30
BRANCH  28  32
ATOM     32  O   UNL     1     -36.061   7.897  10.783  1.00  0.00    -0.497 OA
ATOM     33  C   UNL     1     -36.234   6.698  11.538  1.00  0.00    +0.278 C 
ENDBRANCH  28  32
ENDBRANCH   5  24
TORSDOF 6
ENDMDL
MODEL 4
REMARK VINA RESULT:    -9.114      1.689      2.031
REMARK INTER + INTRA:         -13.300
REMARK INTER:                 -12.588
REMARK INTRA:                  -0.712
REMARK UNBOUND:                -0.990
REMARK SMILES COc1cc(OC)cc(-c2cc(C3CC(C)(C)OC(C)(C)C3)nn2-c2ccccc2OC)c1
REMARK SMILES IDX 23 1 24 2 12 3 11 4 10 5 13 6 18 7 15 8 19 9 14 10 22 11
REMARK SMILES IDX 16 12 17 13 20 14 21 15 25 16 30 17 26 18 29 19 27 20 28 21
REMARK SMILES IDX 31 22 32 23 9 24 8 25 33 26 5 27 3 28 4 29 6 30 7 31 2 32
REMARK SMILES IDX 1 33
REMARK H PARENT
ROOT
ATOM      1  N   UNL     1     -40.850  12.403  11.923  1.00  0.00    -0.172 NA
ATOM      2  N   UNL     1     -40.203  11.246  11.703  1.00  0.00    -0.229 N 
ATOM      3  C   UNL     1     -40.731  13.043  10.757  1.00  0.00    +0.067 A 
ATOM      4  C   UNL     1     -40.015  12.300   9.799  1.00  0.00    +0.055 A 
ATOM      5  C   UNL     1     -39.684  11.135  10.446  1.00  0.00    +0.075 A 
ENDROOT
BRANCH   3   6
ATOM      6  C   UNL     1     -41.343  14.424  10.587  1.00  0.00    +0.046 C 
ATOM      7  O   UNL     1     -41.326  17.304  10.277  1.00  0.00    -0.370 OA
ATOM      8  C   UNL     1     -41.596  16.763  11.576  1.00  0.00    +0.064 C 
ATOM      9  C   UNL     1     -41.516  16.497   9.109  1.00  0.00    +0.064 C 
ATOM     10  C   UNL     1     -40.995  15.357  11.753  1.00  0.00    +0.045 C 
ATOM     11  C   UNL     1     -40.914  15.090   9.274  1.00  0.00    +0.045 C 
ATOM     12  C   UNL     1     -43.095  16.799  11.902  1.00  0.00    +0.042 C 
ATOM     13  C   UNL     1     -40.896  17.725  12.553  1.00  0.00    +0.042 C 
ATOM     14  C   UNL     1     -40.748  17.233   7.996  1.00  0.00    +0.042 C 
ATOM     15  C   UNL     1     -42.990  16.451   8.688  1.00  0.00    +0.042 C 
ENDBRANCH   3   6
BRANCH   2  16
ATOM     16  C   UNL     1     -40.120  10.301  12.727  1.00  0.00    +0.107 A 
ATOM     17  C   UNL     1     -39.494  10.613  13.935  1.00  0.00    +0.144 A 
ATOM     18  C   UNL     1     -40.672   9.035  12.534  1.00  0.00    +0.032 A 
ATOM     19  C   UNL     1     -39.420   9.657  14.948  1.00  0.00    +0.049 A 
ATOM     20  C   UNL     1     -40.597   8.079  13.548  1.00  0.00    +0.003 A 
ATOM     21  C   UNL     1     -39.971   8.390  14.754  1.00  0.00    +0.004 A 
BRANCH  17  22
ATOM     22  O   UNL     1     -38.948  11.843  14.149  1.00  0.00    -0.494 OA
ATOM     23  C   UNL     1     -39.151  12.426  15.433  1.00  0.00    +0.278 C 
ENDBRANCH  17  22
ENDBRANCH   2  16
BRANCH   5  24
ATOM     24  C   UNL     1     -38.944   9.991   9.964  1.00  0.00    +0.008 A 
ATOM     25  C   UNL     1     -37.828   9.536  10.665  1.00  0.00    +0.057 A 
ATOM     26  C   UNL     1     -39.347   9.342   8.796  1.00  0.00    +0.057 A 
ATOM     27  C   UNL     1     -37.114   8.431  10.199  1.00  0.00    +0.123 A 
ATOM     28  C   UNL     1     -38.633   8.238   8.331  1.00  0.00    +0.123 A 
ATOM     29  C   UNL     1     -37.516   7.783   9.032  1.00  0.00    +0.092 A 
BRANCH  27  30
ATOM     30  O   UNL     1     -36.024   7.987  10.884  1.00  0.00    -0.497 OA
ATOM     31  C   UNL     1     -36.154   6.744  11.573  1.00  0.00    +0.278 C 
ENDBRANCH  27  30
BRANCH  28  32
ATOM     32  O   UNL     1     -39.025   7.605   7.192  1.00  0.00    -0.497 OA
ATOM     33  C   UNL     1     -40.120   6.696   7.297  1.00  0.00    +0.278 C 
ENDBRANCH  28  32
ENDBRANCH   5  24
TORSDOF 6
ENDMDL
MODEL 5
REMARK VINA RESULT:    -9.024      2.746      3.738
REMARK INTER + INTRA:         -13.179
REMARK INTER:                 -12.044
REMARK INTRA:                  -1.136
REMARK UNBOUND:                -0.990
REMARK SMILES COc1cc(OC)cc(-c2cc(C3CC(C)(C)OC(C)(C)C3)nn2-c2ccccc2OC)c1
REMARK SMILES IDX 23 1 24 2 12 3 11 4 10 5 13 6 18 7 15 8 19 9 14 10 22 11
REMARK SMILES IDX 16 12 17 13 20 14 21 15 25 16 30 17 26 18 29 19 27 20 28 21
REMARK SMILES IDX 31 22 32 23 9 24 8 25 33 26 5 27 3 28 4 29 6 30 7 31 2 32
REMARK SMILES IDX 1 33
REMARK H PARENT
ROOT
ATOM      1  N   UNL     1     -40.124  10.857  15.088  1.00  0.00    -0.172 NA
ATOM      2  N   UNL     1     -39.667   9.973  14.185  1.00  0.00    -0.229 N 
ATOM      3  C   UNL     1     -40.158  12.001  14.401  1.00  0.00    +0.067 A 
ATOM      4  C   UNL     1     -39.727  11.850  13.069  1.00  0.00    +0.055 A 
ATOM      5  C   UNL     1     -39.414  10.517  12.960  1.00  0.00    +0.075 A 
ENDROOT
BRANCH   3   6
ATOM      6  C   UNL     1     -40.630  13.276  15.080  1.00  0.00    +0.046 C 
ATOM      7  O   UNL     1     -40.425  16.017  15.997  1.00  0.00    -0.370 OA
ATOM      8  C   UNL     1     -40.200  14.967  16.944  1.00  0.00    +0.064 C 
ATOM      9  C   UNL     1     -41.162  15.756  14.797  1.00  0.00    +0.064 C 
ATOM     10  C   UNL     1     -39.737  13.665  16.265  1.00  0.00    +0.045 C 
ATOM     11  C   UNL     1     -40.704  14.459  14.106  1.00  0.00    +0.045 C 
ATOM     12  C   UNL     1     -41.421  14.748  17.846  1.00  0.00    +0.042 C 
ATOM     13  C   UNL     1     -39.061  15.486  17.841  1.00  0.00    +0.042 C 
ATOM     14  C   UNL     1     -40.839  16.945  13.872  1.00  0.00    +0.042 C 
ATOM     15  C   UNL     1     -42.675  15.777  15.047  1.00  0.00    +0.042 C 
ENDBRANCH   3   6
BRANCH   2  16
ATOM     16  C   UNL     1     -39.497   8.639  14.557  1.00  0.00    +0.107 A 
ATOM     17  C   UNL     1     -38.471   8.266  15.426  1.00  0.00    +0.144 A 
ATOM     18  C   UNL     1     -40.367   7.673  14.051  1.00  0.00    +0.032 A 
ATOM     19  C   UNL     1     -38.315   6.927  15.788  1.00  0.00    +0.049 A 
ATOM     20  C   UNL     1     -40.211   6.335  14.413  1.00  0.00    +0.003 A 
ATOM     21  C   UNL     1     -39.185   5.962  15.280  1.00  0.00    +0.004 A 
BRANCH  17  22
ATOM     22  O   UNL     1     -37.607   9.190  15.935  1.00  0.00    -0.494 OA
ATOM     23  C   UNL     1     -37.659   9.418  17.340  1.00  0.00    +0.278 C 
ENDBRANCH  17  22
ENDBRANCH   2  16
BRANCH   5  24
ATOM     24  C   UNL     1     -38.915   9.779  11.823  1.00  0.00    +0.008 A 
ATOM     25  C   UNL     1     -37.687   9.122  11.901  1.00  0.00    +0.057 A 
ATOM     26  C   UNL     1     -39.662   9.722  10.646  1.00  0.00    +0.057 A 
ATOM     27  C   UNL     1     -37.206   8.408  10.803  1.00  0.00    +0.123 A 
ATOM     28  C   UNL     1     -39.180   9.009   9.548  1.00  0.00    +0.123 A 
ATOM     29  C   UNL     1     -37.952   8.353   9.627  1.00  0.00    +0.092 A 
BRANCH  27  30
ATOM     30  O   UNL     1     -36.007   7.766  10.880  1.00  0.00    -0.497 OA
ATOM     31  C   UNL     1     -36.011   6.448  11.427  1.00  0.00    +0.278 C 
ENDBRANCH  27  30
BRANCH  28  32
ATOM     32  O   UNL     1     -39.908   8.954   8.399  1.00  0.00    -0.497 OA
ATOM     33  C   UNL     1     -40.140   7.663   7.838  1.00  0.00    +0.278 C 
ENDBRANCH  28  32
ENDBRANCH   5  24
TORSDOF 6
ENDMDL
MODEL 6
REMARK VINA RESULT:    -9.023      1.919      4.226
REMARK INTER + INTRA:         -13.177
REMARK INTER:                 -12.228
REMARK INTRA:                  -0.949
REMARK UNBOUND:                -0.990
REMARK SMILES COc1cc(OC)cc(-c2cc(C3CC(C)(C)OC(C)(C)C3)nn2-c2ccccc2OC)c1
REMARK SMILES IDX 23 1 24 2 12 3 11 4 10 5 13 6 18 7 15 8 19 9 14 10 22 11
REMARK SMILES IDX 16 12 17 13 20 14 21 15 25 16 30 17 26 18 29 19 27 20 28 21
REMARK SMILES IDX 31 22 32 23 9 24 8 25 33 26 5 27 3 28 4 29 6 30 7 31 2 32
REMARK SMILES IDX 1 33
REMARK H PARENT
ROOT
ATOM      1  N   UNL     1     -39.432  10.811  10.865  1.00  0.00    -0.172 NA
ATOM      2  N   UNL     1     -39.271   9.878  11.819  1.00  0.00    -0.229 N 
ATOM      3  C   UNL     1     -40.335  11.637  11.397  1.00  0.00    +0.067 A 
ATOM      4  C   UNL     1     -40.748  11.236  12.683  1.00  0.00    +0.055 A 
ATOM      5  C   UNL     1     -40.037  10.087  12.928  1.00  0.00    +0.075 A 
ENDROOT
BRANCH   3   6
ATOM      6  C   UNL     1     -40.801  12.853  10.615  1.00  0.00    +0.046 C 
ATOM      7  O   UNL     1     -40.547  15.464   9.383  1.00  0.00    -0.370 OA
ATOM      8  C   UNL     1     -41.197  15.374  10.656  1.00  0.00    +0.064 C 
ATOM      9  C   UNL     1     -40.445  14.306   8.546  1.00  0.00    +0.064 C 
ATOM     10  C   UNL     1     -40.744  14.137  11.452  1.00  0.00    +0.045 C 
ATOM     11  C   UNL     1     -39.987  13.063   9.331  1.00  0.00    +0.045 C 
ATOM     12  C   UNL     1     -42.723  15.449  10.517  1.00  0.00    +0.042 C 
ATOM     13  C   UNL     1     -40.749  16.638  11.414  1.00  0.00    +0.042 C 
ATOM     14  C   UNL     1     -39.358  14.662   7.515  1.00  0.00    +0.042 C 
ATOM     15  C   UNL     1     -41.742  14.055   7.767  1.00  0.00    +0.042 C 
ENDBRANCH   3   6
BRANCH   2  16
ATOM     16  C   UNL     1     -38.379   8.826  11.606  1.00  0.00    +0.107 A 
ATOM     17  C   UNL     1     -38.747   7.725  10.833  1.00  0.00    +0.144 A 
ATOM     18  C   UNL     1     -37.107   8.885  12.175  1.00  0.00    +0.032 A 
ATOM     19  C   UNL     1     -37.843   6.682  10.630  1.00  0.00    +0.049 A 
ATOM     20  C   UNL     1     -36.203   7.842  11.972  1.00  0.00    +0.003 A 
ATOM     21  C   UNL     1     -36.571   6.740  11.201  1.00  0.00    +0.004 A 
BRANCH  17  22
ATOM     22  O   UNL     1     -39.984   7.644  10.265  1.00  0.00    -0.494 OA
ATOM     23  C   UNL     1     -40.258   6.490   9.475  1.00  0.00    +0.278 C 
ENDBRANCH  17  22
ENDBRANCH   2  16
BRANCH   5  24
ATOM     24  C   UNL     1     -40.047   9.228  14.090  1.00  0.00    +0.008 A 
ATOM     25  C   UNL     1     -40.013   9.783  15.369  1.00  0.00    +0.057 A 
ATOM     26  C   UNL     1     -40.091   7.843  13.932  1.00  0.00    +0.057 A 
ATOM     27  C   UNL     1     -40.024   8.953  16.490  1.00  0.00    +0.123 A 
ATOM     28  C   UNL     1     -40.101   7.013  15.053  1.00  0.00    +0.123 A 
ATOM     29  C   UNL     1     -40.067   7.568  16.332  1.00  0.00    +0.092 A 
BRANCH  27  30
ATOM     30  O   UNL     1     -39.991   9.495  17.739  1.00  0.00    -0.497 OA
ATOM     31  C   UNL     1     -38.725   9.945  18.218  1.00  0.00    +0.278 C 
ENDBRANCH  27  30
BRANCH  28  32
ATOM     32  O   UNL     1     -40.144   5.661  14.900  1.00  0.00    -0.497 OA
ATOM     33  C   UNL     1     -39.197   5.079  14.005  1.00  0.00    +0.278 C 
ENDBRANCH  28  32
ENDBRANCH   5  24
TORSDOF 6
ENDMDL
MODEL 7
REMARK VINA RESULT:    -9.012      3.011      4.372
REMARK INTER + INTRA:         -13.162
REMARK INTER:                 -12.262
REMARK INTRA:                  -0.901
REMARK UNBOUND:                -0.990
REMARK SMILES COc1cc(OC)cc(-c2cc(C3CC(C)(C)OC(C)(C)C3)nn2-c2ccccc2OC)c1
REMARK SMILES IDX 23 1 24 2 12 3 11 4 10 5 13 6 18 7 15 8 19 9 14 10 22 11
REMARK SMILES IDX 16 12 17 13 20 14 21 15 25 16 30 17 26 18 29 19 27 20 28 21
REMARK SMILES IDX 31 22 32 23 9 24 8 25 33 26 5 27 3 28 4 29 6 30 7 31 2 32
REMARK SMILES IDX 1 33
REMARK H PARENT
ROOT
ATOM      1  N   UNL     1     -39.976  10.830  15.236  1.00  0.00    -0.172 NA
ATOM      2  N   UNL     1     -39.487  10.006  14.294  1.00  0.00    -0.229 N 
ATOM      3  C   UNL     1     -39.959  12.022  14.634  1.00  0.00    +0.067 A 
ATOM      4  C   UNL     1     -39.465  11.960  13.317  1.00  0.00    +0.055 A 
ATOM      5  C   UNL     1     -39.166  10.633  13.125  1.00  0.00    +0.075 A 
ENDROOT
BRANCH   3   6
ATOM      6  C   UNL     1     -40.445  13.252  15.382  1.00  0.00    +0.046 C 
ATOM      7  O   UNL     1     -40.321  15.980  16.351  1.00  0.00    -0.370 OA
ATOM      8  C   UNL     1     -39.962  14.924  17.249  1.00  0.00    +0.064 C 
ATOM      9  C   UNL     1     -41.137  15.703  15.206  1.00  0.00    +0.064 C 
ATOM     10  C   UNL     1     -39.483  13.667  16.502  1.00  0.00    +0.045 C 
ATOM     11  C   UNL     1     -40.664  14.449  14.448  1.00  0.00    +0.045 C 
ATOM     12  C   UNL     1     -41.092  14.615  18.239  1.00  0.00    +0.042 C 
ATOM     13  C   UNL     1     -38.785  15.489  18.066  1.00  0.00    +0.042 C 
ATOM     14  C   UNL     1     -40.957  16.928  14.290  1.00  0.00    +0.042 C 
ATOM     15  C   UNL     1     -42.624  15.630  15.576  1.00  0.00    +0.042 C 
ENDBRANCH   3   6
BRANCH   2  16
ATOM     16  C   UNL     1     -39.356   8.645  14.574  1.00  0.00    +0.107 A 
ATOM     17  C   UNL     1     -38.330   8.183  15.400  1.00  0.00    +0.144 A 
ATOM     18  C   UNL     1     -40.264   7.743  14.020  1.00  0.00    +0.032 A 
ATOM     19  C   UNL     1     -38.213   6.819  15.670  1.00  0.00    +0.049 A 
ATOM     20  C   UNL     1     -40.147   6.379  14.290  1.00  0.00    +0.003 A 
ATOM     21  C   UNL     1     -39.121   5.918  15.115  1.00  0.00    +0.004 A 
BRANCH  17  22
ATOM     22  O   UNL     1     -37.430   9.044  15.954  1.00  0.00    -0.494 OA
ATOM     23  C   UNL     1     -37.618   9.381  17.326  1.00  0.00    +0.278 C 
ENDBRANCH  17  22
ENDBRANCH   2  16
BRANCH   5  24
ATOM     24  C   UNL     1     -38.621   9.970  11.963  1.00  0.00    +0.008 A 
ATOM     25  C   UNL     1     -39.157  10.223  10.700  1.00  0.00    +0.057 A 
ATOM     26  C   UNL     1     -37.559   9.077  12.103  1.00  0.00    +0.057 A 
ATOM     27  C   UNL     1     -38.631   9.583   9.578  1.00  0.00    +0.123 A 
ATOM     28  C   UNL     1     -37.033   8.437  10.981  1.00  0.00    +0.123 A 
ATOM     29  C   UNL     1     -37.569   8.690   9.719  1.00  0.00    +0.092 A 
BRANCH  27  30
ATOM     30  O   UNL     1     -39.154   9.831   8.345  1.00  0.00    -0.497 OA
ATOM     31  C   UNL     1     -39.684  11.135   8.115  1.00  0.00    +0.278 C 
ENDBRANCH  27  30
BRANCH  28  32
ATOM     32  O   UNL     1     -35.997   7.565  11.117  1.00  0.00    -0.497 OA
ATOM     33  C   UNL     1     -36.281   6.308  11.732  1.00  0.00    +0.278 C 
ENDBRANCH  28  32
ENDBRANCH   5  24
TORSDOF 6
ENDMDL
MODEL 8
REMARK VINA RESULT:    -8.987      3.291      4.865
REMARK INTER + INTRA:         -13.129
REMARK INTER:                 -12.222
REMARK INTRA:                  -0.907
REMARK UNBOUND:                -0.990
REMARK SMILES COc1cc(OC)cc(-c2cc(C3CC(C)(C)OC(C)(C)C3)nn2-c2ccccc2OC)c1
REMARK SMILES IDX 23 1 24 2 12 3 11 4 10 5 13 6 18 7 15 8 19 9 14 10 22 11
REMARK SMILES IDX 16 12 17 13 20 14 21 15 25 16 30 17 26 18 29 19 27 20 28 21
REMARK SMILES IDX 31 22 32 23 9 24 8 25 33 26 5 27 3 28 4 29 6 30 7 31 2 32
REMARK SMILES IDX 1 33
REMARK H PARENT
ROOT
ATOM      1  N   UNL     1     -39.745  10.812  15.466  1.00  0.00    -0.172 NA
ATOM      2  N   UNL     1     -39.391  10.040  14.425  1.00  0.00    -0.229 N 
ATOM      3  C   UNL     1     -39.712  12.045  14.955  1.00  0.00    +0.067 A 
ATOM      4  C   UNL     1     -39.341  12.060  13.596  1.00  0.00    +0.055 A 
ATOM      5  C   UNL     1     -39.138  10.739  13.281  1.00  0.00    +0.075 A 
ENDROOT
BRANCH   3   6
ATOM      6  C   UNL     1     -40.056  13.236  15.832  1.00  0.00    +0.046 C 
ATOM      7  O   UNL     1     -41.336  14.619  18.033  1.00  0.00    -0.370 OA
ATOM      8  C   UNL     1     -41.914  14.740  16.728  1.00  0.00    +0.064 C 
ATOM      9  C   UNL     1     -39.964  14.237  18.179  1.00  0.00    +0.064 C 
ATOM     10  C   UNL     1     -41.558  13.546  15.825  1.00  0.00    +0.045 C 
ATOM     11  C   UNL     1     -39.598  13.039  17.283  1.00  0.00    +0.045 C 
ATOM     12  C   UNL     1     -41.562  16.085  16.078  1.00  0.00    +0.042 C 
ATOM     13  C   UNL     1     -43.434  14.738  16.971  1.00  0.00    +0.042 C 
ATOM     14  C   UNL     1     -39.830  13.807  19.651  1.00  0.00    +0.042 C 
ATOM     15  C   UNL     1     -39.020  15.428  17.968  1.00  0.00    +0.042 C 
ENDBRANCH   3   6
BRANCH   2  16
ATOM     16  C   UNL     1     -39.315   8.656  14.592  1.00  0.00    +0.107 A 
ATOM     17  C   UNL     1     -38.288   8.084  15.342  1.00  0.00    +0.144 A 
ATOM     18  C   UNL     1     -40.282   7.844  13.998  1.00  0.00    +0.032 A 
ATOM     19  C   UNL     1     -38.228   6.699  15.499  1.00  0.00    +0.049 A 
ATOM     20  C   UNL     1     -40.221   6.459  14.155  1.00  0.00    +0.003 A 
ATOM     21  C   UNL     1     -39.193   5.887  14.905  1.00  0.00    +0.004 A 
BRANCH  17  22
ATOM     22  O   UNL     1     -37.332   8.856  15.933  1.00  0.00    -0.494 OA
ATOM     23  C   UNL     1     -37.464   9.090  17.332  1.00  0.00    +0.278 C 
ENDBRANCH  17  22
ENDBRANCH   2  16
BRANCH   5  24
ATOM     24  C   UNL     1     -38.739  10.142  12.027  1.00  0.00    +0.008 A 
ATOM     25  C   UNL     1     -37.668   9.250  11.989  1.00  0.00    +0.057 A 
ATOM     26  C   UNL     1     -39.427  10.458  10.855  1.00  0.00    +0.057 A 
ATOM     27  C   UNL     1     -37.284   8.673  10.778  1.00  0.00    +0.123 A 
ATOM     28  C   UNL     1     -39.042   9.881   9.645  1.00  0.00    +0.123 A 
ATOM     29  C   UNL     1     -37.971   8.989   9.606  1.00  0.00    +0.092 A 
BRANCH  27  30
ATOM     30  O   UNL     1     -36.238   7.802  10.740  1.00  0.00    -0.497 OA
ATOM     31  C   UNL     1     -36.465   6.493  11.260  1.00  0.00    +0.278 C 
ENDBRANCH  27  30
BRANCH  28  32
ATOM     32  O   UNL     1     -39.712  10.189   8.500  1.00  0.00    -0.497 OA
ATOM     33  C   UNL     1     -39.633  11.538   8.044  1.00  0.00    +0.278 C 
ENDBRANCH  28  32
ENDBRANCH   5  24
TORSDOF 6
ENDMDL
MODEL 9
REMARK VINA RESULT:    -8.967      3.578      5.862
REMARK INTER + INTRA:         -13.101
REMARK INTER:                 -12.370
REMARK INTRA:                  -0.731
REMARK UNBOUND:                -0.990
REMARK SMILES COc1cc(OC)cc(-c2cc(C3CC(C)(C)OC(C)(C)C3)nn2-c2ccccc2OC)c1
REMARK SMILES IDX 23 1 24 2 12 3 11 4 10 5 13 6 18 7 15 8 19 9 14 10 22 11
REMARK SMILES IDX 16 12 17 13 20 14 21 15 25 16 30 17 26 18 29 19 27 20 28 21
REMARK SMILES IDX 31 22 32 23 9 24 8 25 33 26 5 27 3 28 4 29 6 30 7 31 2 32
REMARK SMILES IDX 1 33
REMARK H PARENT
ROOT
ATOM      1  N   UNL     1     -40.604  14.634  14.114  1.00  0.00    -0.172 NA
ATOM      2  N   UNL     1     -40.462  13.850  15.196  1.00  0.00    -0.229 N 
ATOM      3  C   UNL     1     -40.590  13.763  13.103  1.00  0.00    +0.067 A 
ATOM      4  C   UNL     1     -40.441  12.431  13.535  1.00  0.00    +0.055 A 
ATOM      5  C   UNL     1     -40.359  12.521  14.903  1.00  0.00    +0.075 A 
ENDROOT
BRANCH   3   6
ATOM      6  C   UNL     1     -40.728  14.261  11.674  1.00  0.00    +0.046 C 
ATOM      7  O   UNL     1     -42.072  14.712   9.147  1.00  0.00    -0.370 OA
ATOM      8  C   UNL     1     -41.148  13.622   9.239  1.00  0.00    +0.064 C 
ATOM      9  C   UNL     1     -41.997  15.797  10.079  1.00  0.00    +0.064 C 
ATOM     10  C   UNL     1     -40.988  13.118  10.685  1.00  0.00    +0.045 C 
ATOM     11  C   UNL     1     -41.843  15.305  11.530  1.00  0.00    +0.045 C 
ATOM     12  C   UNL     1     -39.800  13.968   8.593  1.00  0.00    +0.042 C 
ATOM     13  C   UNL     1     -41.781  12.500   8.395  1.00  0.00    +0.042 C 
ATOM     14  C   UNL     1     -43.351  16.520   9.948  1.00  0.00    +0.042 C 
ATOM     15  C   UNL     1     -40.907  16.803   9.689  1.00  0.00    +0.042 C 
ENDBRANCH   3   6
BRANCH   2  16
ATOM     16  C   UNL     1     -40.432  14.429  16.465  1.00  0.00    +0.107 A 
ATOM     17  C   UNL     1     -41.609  14.626  17.187  1.00  0.00    +0.144 A 
ATOM     18  C   UNL     1     -39.207  14.813  17.011  1.00  0.00    +0.032 A 
ATOM     19  C   UNL     1     -41.561  15.207  18.455  1.00  0.00    +0.049 A 
ATOM     20  C   UNL     1     -39.159  15.393  18.279  1.00  0.00    +0.003 A 
ATOM     21  C   UNL     1     -40.336  15.591  19.000  1.00  0.00    +0.004 A 
BRANCH  17  22
ATOM     22  O   UNL     1     -42.819  14.260  16.676  1.00  0.00    -0.494 OA
ATOM     23  C   UNL     1     -43.674  15.307  16.226  1.00  0.00    +0.278 C 
ENDBRANCH  17  22
ENDBRANCH   2  16
BRANCH   5  24
ATOM     24  C   UNL     1     -40.198  11.475  15.887  1.00  0.00    +0.008 A 
ATOM     25  C   UNL     1     -39.351  11.669  16.978  1.00  0.00    +0.057 A 
ATOM     26  C   UNL     1     -40.889  10.272  15.745  1.00  0.00    +0.057 A 
ATOM     27  C   UNL     1     -39.196  10.659  17.928  1.00  0.00    +0.123 A 
ATOM     28  C   UNL     1     -40.733   9.262  16.695  1.00  0.00    +0.123 A 
ATOM     29  C   UNL     1     -39.886   9.456  17.786  1.00  0.00    +0.092 A 
BRANCH  27  30
ATOM     30  O   UNL     1     -38.370  10.849  18.994  1.00  0.00    -0.497 OA
ATOM     31  C   UNL     1     -38.287   9.790  19.947  1.00  0.00    +0.278 C 
ENDBRANCH  27  30
BRANCH  28  32
ATOM     32  O   UNL     1     -41.407   8.088  16.557  1.00  0.00    -0.497 OA
ATOM     33  C   UNL     1     -40.771   7.059  15.800  1.00  0.00    +0.278 C 
ENDBRANCH  28  32
ENDBRANCH   5  24
TORSDOF 6
ENDMDL
