MODEL 1
REMARK VINA RESULT:    -7.060      0.000      0.000
REMARK INTER + INTRA:          -9.555
REMARK INTER:                  -9.124
REMARK INTRA:                  -0.431
REMARK UNBOUND:                -0.431
REMARK SMILES COc1cc2c(c(OC)c1OC)-c1ccc(OC)c(=O)cc1[C@@H](NC(C)=O)CC2
REMARK SMILES IDX 20 1 23 2 28 3 29 4 22 5 5 6 6 7 13 8 7 9 4 10 21 11 14 12
REMARK SMILES IDX 10 13 3 14 19 15 15 16 16 17 8 18 9 19 11 20 12 21 2 22 1 23
REMARK SMILES IDX 24 24 25 25 27 26 26 28 17 29 18 30
REMARK H PARENT 24 27
ROOT
ATOM      1  O   UNL     1      10.433  76.045  47.245  1.00  0.00    -0.286 OA
ATOM      2  C   UNL     1       7.885  72.529  49.195  1.00  0.00    +0.113 C 
ATOM      3  C   UNL     1       7.270  72.165  50.567  1.00  0.00    +0.034 C 
ATOM      4  C   UNL     1       8.220  71.695  51.677  1.00  0.00    +0.039 C 
ATOM      5  C   UNL     1       9.189  73.331  49.225  1.00  0.00    -0.014 A 
ATOM      6  C   UNL     1       9.327  70.800  51.187  1.00  0.00    -0.032 A 
ATOM      7  C   UNL     1      10.345  71.323  50.361  1.00  0.00    +0.031 A 
ATOM      8  C   UNL     1      10.318  72.767  49.981  1.00  0.00    -0.009 A 
ATOM      9  C   UNL     1      11.352  70.473  49.880  1.00  0.00    +0.172 A 
ATOM     10  C   UNL     1       9.345  69.440  51.526  1.00  0.00    +0.055 A 
ATOM     11  C   UNL     1       9.235  74.456  48.487  1.00  0.00    +0.062 A 
ATOM     12  C   UNL     1      11.350  73.478  50.475  1.00  0.00    +0.013 A 
ATOM     13  C   UNL     1      11.358  69.122  50.228  1.00  0.00    +0.203 A 
ATOM     14  C   UNL     1      10.358  68.608  51.049  1.00  0.00    +0.164 A 
ATOM     15  C   UNL     1      10.341  75.424  48.303  1.00  0.00    +0.220 A 
ATOM     16  C   UNL     1      11.609  74.890  50.386  1.00  0.00    +0.051 A 
ATOM     17  C   UNL     1      11.232  75.753  49.439  1.00  0.00    +0.166 A 
ENDROOT
BRANCH   9  18
ATOM     18  O   UNL     1      12.326  70.941  49.046  1.00  0.00    -0.492 OA
ATOM     19  C   UNL     1      12.143  70.716  47.651  1.00  0.00    +0.278 C 
ENDBRANCH   9  18
BRANCH  13  20
ATOM     20  O   UNL     1      12.339  68.299  49.757  1.00  0.00    -0.490 OA
ATOM     21  C   UNL     1      13.548  68.238  50.510  1.00  0.00    +0.278 C 
ENDBRANCH  13  20
BRANCH  14  22
ATOM     22  O   UNL     1      10.353  67.289  51.393  1.00  0.00    -0.493 OA
ATOM     23  C   UNL     1       9.744  66.945  52.635  1.00  0.00    +0.278 C 
ENDBRANCH  14  22
BRANCH   2  24
ATOM     24  N   UNL     1       8.066  71.360  48.356  1.00  0.00    -0.350 N 
ATOM     25  C   UNL     1       7.040  70.486  48.052  1.00  0.00    +0.217 C 
ATOM     26  O   UNL     1       5.877  70.574  48.437  1.00  0.00    -0.275 OA
ATOM     27  H   UNL     1       8.978  71.176  47.949  1.00  0.00    +0.164 HD
ATOM     28  C   UNL     1       7.494  69.375  47.143  1.00  0.00    +0.114 C 
ENDBRANCH   2  24
BRANCH  17  29
ATOM     29  O   UNL     1      11.717  77.052  49.487  1.00  0.00    -0.493 OA
ATOM     30  C   UNL     1      12.628  77.200  50.554  1.00  0.00    +0.278 C 
ENDBRANCH  17  29
TORSDOF 5
ENDMDL
MODEL 2
REMARK VINA RESULT:    -6.588     25.921     28.654
REMARK INTER + INTRA:          -8.945
REMARK INTER:                  -8.371
REMARK INTRA:                  -0.574
REMARK UNBOUND:                -0.431
REMARK SMILES COc1cc2c(c(OC)c1OC)-c1ccc(OC)c(=O)cc1[C@@H](NC(C)=O)CC2
REMARK SMILES IDX 20 1 23 2 28 3 29 4 22 5 5 6 6 7 13 8 7 9 4 10 21 11 14 12
REMARK SMILES IDX 10 13 3 14 19 15 15 16 16 17 8 18 9 19 11 20 12 21 2 22 1 23
REMARK SMILES IDX 24 24 25 25 27 26 26 28 17 29 18 30
REMARK H PARENT 24 27
ROOT
ATOM      1  O   UNL     1      29.714  53.771  37.678  1.00  0.00    -0.286 OA
ATOM      2  C   UNL     1      32.904  55.929  40.476  1.00  0.00    +0.113 C 
ATOM      3  C   UNL     1      32.975  56.541  41.895  1.00  0.00    +0.034 C 
ATOM      4  C   UNL     1      32.293  57.896  42.127  1.00  0.00    +0.039 C 
ATOM      5  C   UNL     1      31.555  56.033  39.758  1.00  0.00    -0.014 A 
ATOM      6  C   UNL     1      32.452  58.858  40.980  1.00  0.00    -0.032 A 
ATOM      7  C   UNL     1      31.810  58.601  39.750  1.00  0.00    +0.031 A 
ATOM      8  C   UNL     1      30.973  57.374  39.595  1.00  0.00    -0.009 A 
ATOM      9  C   UNL     1      31.994  59.485  38.675  1.00  0.00    +0.172 A 
ATOM     10  C   UNL     1      33.252  60.000  41.115  1.00  0.00    +0.055 A 
ATOM     11  C   UNL     1      31.039  54.897  39.252  1.00  0.00    +0.062 A 
ATOM     12  C   UNL     1      29.665  57.630  39.399  1.00  0.00    +0.013 A 
ATOM     13  C   UNL     1      32.792  60.619  38.826  1.00  0.00    +0.203 A 
ATOM     14  C   UNL     1      33.418  60.876  40.043  1.00  0.00    +0.164 A 
ATOM     15  C   UNL     1      29.779  54.680  38.505  1.00  0.00    +0.220 A 
ATOM     16  C   UNL     1      28.562  56.713  39.291  1.00  0.00    +0.051 A 
ATOM     17  C   UNL     1      28.565  55.448  38.863  1.00  0.00    +0.166 A 
ENDROOT
BRANCH   9  18
ATOM     18  O   UNL     1      31.420  59.241  37.460  1.00  0.00    -0.492 OA
ATOM     19  C   UNL     1      32.175  58.463  36.536  1.00  0.00    +0.278 C 
ENDBRANCH   9  18
BRANCH  13  20
ATOM     20  O   UNL     1      32.968  61.475  37.777  1.00  0.00    -0.490 OA
ATOM     21  C   UNL     1      32.016  62.526  37.635  1.00  0.00    +0.278 C 
ENDBRANCH  13  20
BRANCH  14  22
ATOM     22  O   UNL     1      34.203  61.980  40.199  1.00  0.00    -0.493 OA
ATOM     23  C   UNL     1      35.541  61.896  39.714  1.00  0.00    +0.278 C 
ENDBRANCH  14  22
BRANCH   2  24
ATOM     24  N   UNL     1      33.945  56.446  39.610  1.00  0.00    -0.350 N 
ATOM     25  C   UNL     1      34.497  55.713  38.576  1.00  0.00    +0.217 C 
ATOM     26  O   UNL     1      34.194  54.565  38.262  1.00  0.00    -0.275 OA
ATOM     27  H   UNL     1      34.276  57.397  39.744  1.00  0.00    +0.164 HD
ATOM     28  C   UNL     1      35.536  56.497  37.820  1.00  0.00    +0.114 C 
ENDBRANCH   2  24
BRANCH  17  29
ATOM     29  O   UNL     1      27.352  54.792  38.711  1.00  0.00    -0.493 OA
ATOM     30  C   UNL     1      26.282  55.643  39.060  1.00  0.00    +0.278 C 
ENDBRANCH  17  29
TORSDOF 5
ENDMDL
MODEL 3
REMARK VINA RESULT:    -6.569     25.779     29.986
REMARK INTER + INTRA:          -8.919
REMARK INTER:                  -8.326
REMARK INTRA:                  -0.593
REMARK UNBOUND:                -0.431
REMARK SMILES COc1cc2c(c(OC)c1OC)-c1ccc(OC)c(=O)cc1[C@@H](NC(C)=O)CC2
REMARK SMILES IDX 20 1 23 2 28 3 29 4 22 5 5 6 6 7 13 8 7 9 4 10 21 11 14 12
REMARK SMILES IDX 10 13 3 14 19 15 15 16 16 17 8 18 9 19 11 20 12 21 2 22 1 23
REMARK SMILES IDX 24 24 25 25 27 26 26 28 17 29 18 30
REMARK H PARENT 24 27
ROOT
ATOM      1  O   UNL     1      31.015  50.076  39.526  1.00  0.00    -0.286 OA
ATOM      2  C   UNL     1      29.524  54.261  37.817  1.00  0.00    +0.113 C 
ATOM      3  C   UNL     1      29.658  55.100  36.525  1.00  0.00    +0.034 C 
ATOM      4  C   UNL     1      30.997  55.803  36.262  1.00  0.00    +0.039 C 
ATOM      5  C   UNL     1      30.725  53.386  38.188  1.00  0.00    -0.014 A 
ATOM      6  C   UNL     1      31.629  56.383  37.499  1.00  0.00    -0.032 A 
ATOM      7  C   UNL     1      32.130  55.527  38.503  1.00  0.00    +0.031 A 
ATOM      8  C   UNL     1      32.031  54.047  38.329  1.00  0.00    -0.009 A 
ATOM      9  C   UNL     1      32.685  56.078  39.668  1.00  0.00    +0.172 A 
ATOM     10  C   UNL     1      31.706  57.771  37.674  1.00  0.00    +0.055 A 
ATOM     11  C   UNL     1      30.483  52.086  38.441  1.00  0.00    +0.062 A 
ATOM     12  C   UNL     1      33.225  53.433  38.220  1.00  0.00    +0.013 A 
ATOM     13  C   UNL     1      32.756  57.462  39.828  1.00  0.00    +0.203 A 
ATOM     14  C   UNL     1      32.269  58.305  38.832  1.00  0.00    +0.164 A 
ATOM     15  C   UNL     1      31.419  51.006  38.831  1.00  0.00    +0.220 A 
ATOM     16  C   UNL     1      33.517  52.047  37.966  1.00  0.00    +0.051 A 
ATOM     17  C   UNL     1      32.784  50.970  38.259  1.00  0.00    +0.166 A 
ENDROOT
BRANCH   9  18
ATOM     18  O   UNL     1      33.139  55.275  40.676  1.00  0.00    -0.492 OA
ATOM     19  C   UNL     1      32.173  54.810  41.613  1.00  0.00    +0.278 C 
ENDBRANCH   9  18
BRANCH  13  20
ATOM     20  O   UNL     1      33.296  57.992  40.963  1.00  0.00    -0.490 OA
ATOM     21  C   UNL     1      32.385  58.441  41.964  1.00  0.00    +0.278 C 
ENDBRANCH  13  20
BRANCH  14  22
ATOM     22  O   UNL     1      32.332  59.659  38.980  1.00  0.00    -0.493 OA
ATOM     23  C   UNL     1      31.417  60.437  38.211  1.00  0.00    +0.278 C 
ENDBRANCH  14  22
BRANCH   2  24
ATOM     24  N   UNL     1      29.162  55.079  38.959  1.00  0.00    -0.350 N 
ATOM     25  C   UNL     1      27.873  55.520  39.190  1.00  0.00    +0.217 C 
ATOM     26  O   UNL     1      26.893  55.289  38.486  1.00  0.00    -0.275 OA
ATOM     27  H   UNL     1      29.875  55.327  39.638  1.00  0.00    +0.164 HD
ATOM     28  C   UNL     1      27.770  56.327  40.456  1.00  0.00    +0.114 C 
ENDBRANCH   2  24
BRANCH  17  29
ATOM     29  O   UNL     1      33.330  49.713  38.044  1.00  0.00    -0.493 OA
ATOM     30  C   UNL     1      33.858  49.619  36.739  1.00  0.00    +0.278 C 
ENDBRANCH  17  29
TORSDOF 5
ENDMDL
MODEL 4
REMARK VINA RESULT:    -5.998     26.529     29.388
REMARK INTER + INTRA:          -8.181
REMARK INTER:                  -8.097
REMARK INTRA:                  -0.085
REMARK UNBOUND:                -0.431
REMARK SMILES COc1cc2c(c(OC)c1OC)-c1ccc(OC)c(=O)cc1[C@@H](NC(C)=O)CC2
REMARK SMILES IDX 20 1 23 2 28 3 29 4 22 5 5 6 6 7 13 8 7 9 4 10 21 11 14 12
REMARK SMILES IDX 10 13 3 14 19 15 15 16 16 17 8 18 9 19 11 20 12 21 2 22 1 23
REMARK SMILES IDX 24 24 25 25 27 26 26 28 17 29 18 30
REMARK H PARENT 24 27
ROOT
ATOM      1  O   UNL     1      29.219  54.561  37.799  1.00  0.00    -0.286 OA
ATOM      2  C   UNL     1      31.979  58.112  36.241  1.00  0.00    +0.113 C 
ATOM      3  C   UNL     1      33.399  58.307  35.658  1.00  0.00    +0.034 C 
ATOM      4  C   UNL     1      34.591  58.196  36.619  1.00  0.00    +0.039 C 
ATOM      5  C   UNL     1      31.810  56.973  37.251  1.00  0.00    -0.014 A 
ATOM      6  C   UNL     1      34.337  58.809  37.970  1.00  0.00    -0.032 A 
ATOM      7  C   UNL     1      33.408  58.216  38.851  1.00  0.00    +0.031 A 
ATOM      8  C   UNL     1      32.682  56.979  38.436  1.00  0.00    -0.009 A 
ATOM      9  C   UNL     1      33.153  58.815  40.094  1.00  0.00    +0.172 A 
ATOM     10  C   UNL     1      35.003  59.980  38.356  1.00  0.00    +0.055 A 
ATOM     11  C   UNL     1      30.816  56.094  37.024  1.00  0.00    +0.062 A 
ATOM     12  C   UNL     1      32.984  55.897  39.178  1.00  0.00    +0.013 A 
ATOM     13  C   UNL     1      33.824  59.981  40.465  1.00  0.00    +0.203 A 
ATOM     14  C   UNL     1      34.747  60.560  39.598  1.00  0.00    +0.164 A 
ATOM     15  C   UNL     1      30.398  54.912  37.813  1.00  0.00    +0.220 A 
ATOM     16  C   UNL     1      32.548  54.534  39.024  1.00  0.00    +0.051 A 
ATOM     17  C   UNL     1      31.417  54.073  38.484  1.00  0.00    +0.166 A 
ENDROOT
BRANCH   9  18
ATOM     18  O   UNL     1      32.228  58.288  40.950  1.00  0.00    -0.492 OA
ATOM     19  C   UNL     1      32.726  57.545  42.059  1.00  0.00    +0.278 C 
ENDBRANCH   9  18
BRANCH  13  20
ATOM     20  O   UNL     1      33.571  60.559  41.675  1.00  0.00    -0.490 OA
ATOM     21  C   UNL     1      32.628  61.628  41.695  1.00  0.00    +0.278 C 
ENDBRANCH  13  20
BRANCH  14  22
ATOM     22  O   UNL     1      35.406  61.700  39.950  1.00  0.00    -0.493 OA
ATOM     23  C   UNL     1      35.078  62.886  39.230  1.00  0.00    +0.278 C 
ENDBRANCH  14  22
BRANCH   2  24
ATOM     24  N   UNL     1      31.456  59.337  36.814  1.00  0.00    -0.350 N 
ATOM     25  C   UNL     1      31.589  60.570  36.204  1.00  0.00    +0.217 C 
ATOM     26  O   UNL     1      32.150  60.790  35.134  1.00  0.00    -0.275 OA
ATOM     27  H   UNL     1      30.947  59.297  37.692  1.00  0.00    +0.164 HD
ATOM     28  C   UNL     1      30.933  61.667  36.999  1.00  0.00    +0.114 C 
ENDBRANCH   2  24
BRANCH  17  29
ATOM     29  O   UNL     1      31.142  52.716  38.567  1.00  0.00    -0.493 OA
ATOM     30  C   UNL     1      31.991  51.986  37.709  1.00  0.00    +0.278 C 
ENDBRANCH  17  29
TORSDOF 5
ENDMDL
MODEL 5
REMARK VINA RESULT:    -5.892     26.370     28.966
REMARK INTER + INTRA:          -8.044
REMARK INTER:                  -7.928
REMARK INTRA:                  -0.117
REMARK UNBOUND:                -0.431
REMARK SMILES COc1cc2c(c(OC)c1OC)-c1ccc(OC)c(=O)cc1[C@@H](NC(C)=O)CC2
REMARK SMILES IDX 20 1 23 2 28 3 29 4 22 5 5 6 6 7 13 8 7 9 4 10 21 11 14 12
REMARK SMILES IDX 10 13 3 14 19 15 15 16 16 17 8 18 9 19 11 20 12 21 2 22 1 23
REMARK SMILES IDX 24 24 25 25 27 26 26 28 17 29 18 30
REMARK H PARENT 24 27
ROOT
ATOM      1  O   UNL     1      32.171  62.068  41.117  1.00  0.00    -0.286 OA
ATOM      2  C   UNL     1      34.489  57.920  40.818  1.00  0.00    +0.113 C 
ATOM      3  C   UNL     1      35.515  57.230  39.889  1.00  0.00    +0.034 C 
ATOM      4  C   UNL     1      35.020  56.714  38.531  1.00  0.00    +0.039 C 
ATOM      5  C   UNL     1      33.509  58.889  40.148  1.00  0.00    -0.014 A 
ATOM      6  C   UNL     1      33.648  56.096  38.582  1.00  0.00    -0.032 A 
ATOM      7  C   UNL     1      32.519  56.904  38.830  1.00  0.00    +0.031 A 
ATOM      8  C   UNL     1      32.692  58.373  39.040  1.00  0.00    -0.009 A 
ATOM      9  C   UNL     1      31.248  56.312  38.911  1.00  0.00    +0.172 A 
ATOM     10  C   UNL     1      33.484  54.715  38.405  1.00  0.00    +0.055 A 
ATOM     11  C   UNL     1      33.406  60.122  40.679  1.00  0.00    +0.062 A 
ATOM     12  C   UNL     1      32.124  59.129  38.081  1.00  0.00    +0.013 A 
ATOM     13  C   UNL     1      31.100  54.937  38.732  1.00  0.00    +0.203 A 
ATOM     14  C   UNL     1      32.215  54.142  38.478  1.00  0.00    +0.164 A 
ATOM     15  C   UNL     1      32.551  61.261  40.270  1.00  0.00    +0.220 A 
ATOM     16  C   UNL     1      32.154  60.556  37.908  1.00  0.00    +0.051 A 
ATOM     17  C   UNL     1      32.288  61.509  38.834  1.00  0.00    +0.166 A 
ENDROOT
BRANCH   9  18
ATOM     18  O   UNL     1      30.142  57.063  39.193  1.00  0.00    -0.492 OA
ATOM     19  C   UNL     1      29.507  56.829  40.446  1.00  0.00    +0.278 C 
ENDBRANCH   9  18
BRANCH  13  20
ATOM     20  O   UNL     1      29.863  54.367  38.812  1.00  0.00    -0.490 OA
ATOM     21  C   UNL     1      29.194  54.098  37.583  1.00  0.00    +0.278 C 
ENDBRANCH  13  20
BRANCH  14  22
ATOM     22  O   UNL     1      32.080  52.797  38.303  1.00  0.00    -0.493 OA
ATOM     23  C   UNL     1      33.006  52.162  37.424  1.00  0.00    +0.278 C 
ENDBRANCH  14  22
BRANCH   2  24
ATOM     24  N   UNL     1      33.742  56.961  41.609  1.00  0.00    -0.350 N 
ATOM     25  C   UNL     1      34.340  55.913  42.281  1.00  0.00    +0.217 C 
ATOM     26  O   UNL     1      35.541  55.658  42.301  1.00  0.00    -0.275 OA
ATOM     27  H   UNL     1      32.736  57.066  41.698  1.00  0.00    +0.164 HD
ATOM     28  C   UNL     1      33.339  55.086  43.043  1.00  0.00    +0.114 C 
ENDBRANCH   2  24
BRANCH  17  29
ATOM     29  O   UNL     1      32.149  62.835  38.452  1.00  0.00    -0.493 OA
ATOM     30  C   UNL     1      33.414  63.424  38.239  1.00  0.00    +0.278 C 
ENDBRANCH  17  29
TORSDOF 5
ENDMDL
MODEL 6
REMARK VINA RESULT:    -5.758      6.839     10.374
REMARK INTER + INTRA:          -7.872
REMARK INTER:                  -7.582
REMARK INTRA:                  -0.290
REMARK UNBOUND:                -0.431
REMARK SMILES COc1cc2c(c(OC)c1OC)-c1ccc(OC)c(=O)cc1[C@@H](NC(C)=O)CC2
REMARK SMILES IDX 20 1 23 2 28 3 29 4 22 5 5 6 6 7 13 8 7 9 4 10 21 11 14 12
REMARK SMILES IDX 10 13 3 14 19 15 15 16 16 17 8 18 9 19 11 20 12 21 2 22 1 23
REMARK SMILES IDX 24 24 25 25 27 26 26 28 17 29 18 30
REMARK H PARENT 24 27
ROOT
ATOM      1  O   UNL     1      13.428  67.841  49.061  1.00  0.00    -0.286 OA
ATOM      2  C   UNL     1      17.562  66.993  46.858  1.00  0.00    +0.113 C 
ATOM      3  C   UNL     1      18.765  67.791  46.304  1.00  0.00    +0.034 C 
ATOM      4  C   UNL     1      18.568  68.573  44.998  1.00  0.00    +0.039 C 
ATOM      5  C   UNL     1      16.198  67.688  46.795  1.00  0.00    -0.014 A 
ATOM      6  C   UNL     1      17.726  67.850  43.981  1.00  0.00    -0.032 A 
ATOM      7  C   UNL     1      16.349  67.650  44.219  1.00  0.00    +0.031 A 
ATOM      8  C   UNL     1      15.735  68.160  45.481  1.00  0.00    -0.009 A 
ATOM      9  C   UNL     1      15.580  66.943  43.281  1.00  0.00    +0.172 A 
ATOM     10  C   UNL     1      18.302  67.352  42.805  1.00  0.00    +0.055 A 
ATOM     11  C   UNL     1      15.483  67.740  47.934  1.00  0.00    +0.062 A 
ATOM     12  C   UNL     1      14.823  69.132  45.287  1.00  0.00    +0.013 A 
ATOM     13  C   UNL     1      16.168  66.455  42.114  1.00  0.00    +0.203 A 
ATOM     14  C   UNL     1      17.524  66.661  41.877  1.00  0.00    +0.164 A 
ATOM     15  C   UNL     1      14.145  68.325  48.186  1.00  0.00    +0.220 A 
ATOM     16  C   UNL     1      14.096  69.907  46.256  1.00  0.00    +0.051 A 
ATOM     17  C   UNL     1      13.742  69.573  47.500  1.00  0.00    +0.166 A 
ENDROOT
BRANCH   9  18
ATOM     18  O   UNL     1      14.255  66.697  43.504  1.00  0.00    -0.492 OA
ATOM     19  C   UNL     1      13.846  65.332  43.510  1.00  0.00    +0.278 C 
ENDBRANCH   9  18
BRANCH  13  20
ATOM     20  O   UNL     1      15.416  65.768  41.207  1.00  0.00    -0.490 OA
ATOM     21  C   UNL     1      14.786  66.530  40.180  1.00  0.00    +0.278 C 
ENDBRANCH  13  20
BRANCH  14  22
ATOM     22  O   UNL     1      18.108  66.185  40.740  1.00  0.00    -0.493 OA
ATOM     23  C   UNL     1      18.354  67.126  39.697  1.00  0.00    +0.278 C 
ENDBRANCH  14  22
BRANCH   2  24
ATOM     24  N   UNL     1      17.455  65.681  46.249  1.00  0.00    -0.350 N 
ATOM     25  C   UNL     1      17.871  64.523  46.878  1.00  0.00    +0.217 C 
ATOM     26  O   UNL     1      18.371  64.449  47.998  1.00  0.00    -0.275 OA
ATOM     27  H   UNL     1      17.037  65.593  45.328  1.00  0.00    +0.164 HD
ATOM     28  C   UNL     1      17.622  63.301  46.036  1.00  0.00    +0.114 C 
ENDBRANCH   2  24
BRANCH  17  29
ATOM     29  O   UNL     1      12.917  70.431  48.212  1.00  0.00    -0.493 OA
ATOM     30  C   UNL     1      11.729  70.685  47.494  1.00  0.00    +0.278 C 
ENDBRANCH  17  29
TORSDOF 5
ENDMDL
MODEL 7
REMARK VINA RESULT:    -5.173      9.618     12.298
REMARK INTER + INTRA:          -7.116
REMARK INTER:                  -7.167
REMARK INTRA:                   0.051
REMARK UNBOUND:                -0.431
REMARK SMILES COc1cc2c(c(OC)c1OC)-c1ccc(OC)c(=O)cc1[C@@H](NC(C)=O)CC2
REMARK SMILES IDX 20 1 23 2 28 3 29 4 22 5 5 6 6 7 13 8 7 9 4 10 21 11 14 12
REMARK SMILES IDX 10 13 3 14 19 15 15 16 16 17 8 18 9 19 11 20 12 21 2 22 1 23
REMARK SMILES IDX 24 24 25 25 27 26 26 28 17 29 18 30
REMARK H PARENT 24 27
ROOT
ATOM      1  O   UNL     1      15.587  64.020  38.147  1.00  0.00    -0.286 OA
ATOM      2  C   UNL     1      14.909  64.578  42.826  1.00  0.00    +0.113 C 
ATOM      3  C   UNL     1      14.125  65.508  43.781  1.00  0.00    +0.034 C 
ATOM      4  C   UNL     1      14.651  66.935  43.986  1.00  0.00    +0.039 C 
ATOM      5  C   UNL     1      15.409  65.208  41.522  1.00  0.00    -0.014 A 
ATOM      6  C   UNL     1      16.152  67.021  44.059  1.00  0.00    -0.032 A 
ATOM      7  C   UNL     1      16.930  66.762  42.910  1.00  0.00    +0.031 A 
ATOM      8  C   UNL     1      16.257  66.405  41.626  1.00  0.00    -0.009 A 
ATOM      9  C   UNL     1      18.330  66.811  42.998  1.00  0.00    +0.172 A 
ATOM     10  C   UNL     1      16.788  67.338  45.267  1.00  0.00    +0.055 A 
ATOM     11  C   UNL     1      15.106  64.569  40.376  1.00  0.00    +0.062 A 
ATOM     12  C   UNL     1      16.427  67.319  40.652  1.00  0.00    +0.013 A 
ATOM     13  C   UNL     1      18.949  67.128  44.207  1.00  0.00    +0.203 A 
ATOM     14  C   UNL     1      18.180  67.392  45.337  1.00  0.00    +0.164 A 
ATOM     15  C   UNL     1      15.452  64.917  38.978  1.00  0.00    +0.220 A 
ATOM     16  C   UNL     1      15.867  67.354  39.326  1.00  0.00    +0.051 A 
ATOM     17  C   UNL     1      15.480  66.335  38.554  1.00  0.00    +0.166 A 
ENDROOT
BRANCH   9  18
ATOM     18  O   UNL     1      19.111  66.523  41.914  1.00  0.00    -0.492 OA
ATOM     19  C   UNL     1      19.458  67.612  41.064  1.00  0.00    +0.278 C 
ENDBRANCH   9  18
BRANCH  13  20
ATOM     20  O   UNL     1      20.311  67.173  44.286  1.00  0.00    -0.490 OA
ATOM     21  C   UNL     1      20.909  68.461  44.410  1.00  0.00    +0.278 C 
ENDBRANCH  13  20
BRANCH  14  22
ATOM     22  O   UNL     1      18.776  67.701  46.523  1.00  0.00    -0.493 OA
ATOM     23  C   UNL     1      18.406  68.936  47.131  1.00  0.00    +0.278 C 
ENDBRANCH  14  22
BRANCH   2  24
ATOM     24  N   UNL     1      16.018  63.926  43.494  1.00  0.00    -0.350 N 
ATOM     25  C   UNL     1      15.858  63.114  44.601  1.00  0.00    +0.217 C 
ATOM     26  O   UNL     1      14.794  62.843  45.151  1.00  0.00    -0.275 OA
ATOM     27  H   UNL     1      16.959  64.046  43.129  1.00  0.00    +0.164 HD
ATOM     28  C   UNL     1      17.167  62.545  45.079  1.00  0.00    +0.114 C 
ENDBRANCH   2  24
BRANCH  17  29
ATOM     29  O   UNL     1      15.096  66.597  37.248  1.00  0.00    -0.493 OA
ATOM     30  C   UNL     1      16.130  67.256  36.550  1.00  0.00    +0.278 C 
ENDBRANCH  17  29
TORSDOF 5
ENDMDL
MODEL 8
REMARK VINA RESULT:    -5.078      2.671      7.487
REMARK INTER + INTRA:          -6.994
REMARK INTER:                  -6.548
REMARK INTRA:                  -0.446
REMARK UNBOUND:                -0.431
REMARK SMILES COc1cc2c(c(OC)c1OC)-c1ccc(OC)c(=O)cc1[C@@H](NC(C)=O)CC2
REMARK SMILES IDX 20 1 23 2 28 3 29 4 22 5 5 6 6 7 13 8 7 9 4 10 21 11 14 12
REMARK SMILES IDX 10 13 3 14 19 15 15 16 16 17 8 18 9 19 11 20 12 21 2 22 1 23
REMARK SMILES IDX 24 24 25 25 27 26 26 28 17 29 18 30
REMARK H PARENT 24 27
ROOT
ATOM      1  O   UNL     1      11.833  70.846  50.853  1.00  0.00    -0.286 OA
ATOM      2  C   UNL     1       9.452  74.954  51.195  1.00  0.00    +0.113 C 
ATOM      3  C   UNL     1       8.044  75.508  50.874  1.00  0.00    +0.034 C 
ATOM      4  C   UNL     1       7.693  75.767  49.403  1.00  0.00    +0.039 C 
ATOM      5  C   UNL     1       9.977  73.853  50.268  1.00  0.00    -0.014 A 
ATOM      6  C   UNL     1       8.831  76.340  48.601  1.00  0.00    -0.032 A 
ATOM      7  C   UNL     1       9.967  75.550  48.324  1.00  0.00    +0.031 A 
ATOM      8  C   UNL     1      10.031  74.146  48.827  1.00  0.00    -0.009 A 
ATOM      9  C   UNL     1      11.037  76.106  47.606  1.00  0.00    +0.172 A 
ATOM     10  C   UNL     1       8.782  77.664  48.144  1.00  0.00    +0.055 A 
ATOM     11  C   UNL     1      10.432  72.727  50.848  1.00  0.00    +0.062 A 
ATOM     12  C   UNL     1      10.041  73.219  47.850  1.00  0.00    +0.013 A 
ATOM     13  C   UNL     1      10.974  77.425  47.156  1.00  0.00    +0.203 A 
ATOM     14  C   UNL     1       9.849  78.200  47.423  1.00  0.00    +0.164 A 
ATOM     15  C   UNL     1      11.004  71.508  50.231  1.00  0.00    +0.220 A 
ATOM     16  C   UNL     1      10.017  71.784  47.954  1.00  0.00    +0.051 A 
ATOM     17  C   UNL     1      10.467  71.009  48.944  1.00  0.00    +0.166 A 
ENDROOT
BRANCH   9  18
ATOM     18  O   UNL     1      12.167  75.380  47.359  1.00  0.00    -0.492 OA
ATOM     19  C   UNL     1      13.291  75.631  48.198  1.00  0.00    +0.278 C 
ENDBRANCH   9  18
BRANCH  13  20
ATOM     20  O   UNL     1      12.018  77.959  46.459  1.00  0.00    -0.490 OA
ATOM     21  C   UNL     1      12.767  78.987  47.104  1.00  0.00    +0.278 C 
ENDBRANCH  13  20
BRANCH  14  22
ATOM     22  O   UNL     1       9.779  79.490  46.989  1.00  0.00    -0.493 OA
ATOM     23  C   UNL     1       9.223  79.709  45.694  1.00  0.00    +0.278 C 
ENDBRANCH  14  22
BRANCH   2  24
ATOM     24  N   UNL     1      10.442  76.009  51.287  1.00  0.00    -0.350 N 
ATOM     25  C   UNL     1      11.210  76.224  52.416  1.00  0.00    +0.217 C 
ATOM     26  O   UNL     1      11.161  75.576  53.458  1.00  0.00    -0.275 OA
ATOM     27  H   UNL     1      10.603  76.611  50.485  1.00  0.00    +0.164 HD
ATOM     28  C   UNL     1      12.174  77.366  52.234  1.00  0.00    +0.114 C 
ENDBRANCH   2  24
BRANCH  17  29
ATOM     29  O   UNL     1      10.465  69.633  48.768  1.00  0.00    -0.493 OA
ATOM     30  C   UNL     1       9.183  69.103  49.025  1.00  0.00    +0.278 C 
ENDBRANCH  17  29
TORSDOF 5
ENDMDL
MODEL 9
REMARK VINA RESULT:    -4.960     29.138     32.083
REMARK INTER + INTRA:          -6.841
REMARK INTER:                  -6.108
REMARK INTRA:                  -0.733
REMARK UNBOUND:                -0.431
REMARK SMILES COc1cc2c(c(OC)c1OC)-c1ccc(OC)c(=O)cc1[C@@H](NC(C)=O)CC2
REMARK SMILES IDX 20 1 23 2 28 3 29 4 22 5 5 6 6 7 13 8 7 9 4 10 21 11 14 12
REMARK SMILES IDX 10 13 3 14 19 15 15 16 16 17 8 18 9 19 11 20 12 21 2 22 1 23
REMARK SMILES IDX 24 24 25 25 27 26 26 28 17 29 18 30
REMARK H PARENT 24 27
ROOT
ATOM      1  O   UNL     1      33.833  50.153  52.528  1.00  0.00    -0.286 OA
ATOM      2  C   UNL     1      31.779  51.846  48.582  1.00  0.00    +0.113 C 
ATOM      3  C   UNL     1      30.418  51.753  47.852  1.00  0.00    +0.034 C 
ATOM      4  C   UNL     1      30.089  50.450  47.111  1.00  0.00    +0.039 C 
ATOM      5  C   UNL     1      32.217  50.604  49.364  1.00  0.00    -0.014 A 
ATOM      6  C   UNL     1      31.269  49.847  46.397  1.00  0.00    -0.032 A 
ATOM      7  C   UNL     1      32.340  49.304  47.138  1.00  0.00    +0.031 A 
ATOM      8  C   UNL     1      32.295  49.331  48.630  1.00  0.00    -0.009 A 
ATOM      9  C   UNL     1      33.452  48.776  46.463  1.00  0.00    +0.172 A 
ATOM     10  C   UNL     1      31.324  49.837  44.996  1.00  0.00    +0.055 A 
ATOM     11  C   UNL     1      32.582  50.783  50.647  1.00  0.00    +0.062 A 
ATOM     12  C   UNL     1      32.234  48.109  49.194  1.00  0.00    +0.013 A 
ATOM     13  C   UNL     1      33.491  48.772  45.068  1.00  0.00    +0.203 A 
ATOM     14  C   UNL     1      32.430  49.299  44.338  1.00  0.00    +0.164 A 
ATOM     15  C   UNL     1      33.059  49.795  51.643  1.00  0.00    +0.220 A 
ATOM     16  C   UNL     1      32.098  47.750  50.580  1.00  0.00    +0.051 A 
ATOM     17  C   UNL     1      32.486  48.430  51.663  1.00  0.00    +0.166 A 
ENDROOT
BRANCH   9  18
ATOM     18  O   UNL     1      34.522  48.282  47.153  1.00  0.00    -0.492 OA
ATOM     19  C   UNL     1      35.496  49.225  47.590  1.00  0.00    +0.278 C 
ENDBRANCH   9  18
BRANCH  13  20
ATOM     20  O   UNL     1      34.575  48.257  44.417  1.00  0.00    -0.490 OA
ATOM     21  C   UNL     1      35.540  49.188  43.934  1.00  0.00    +0.278 C 
ENDBRANCH  13  20
BRANCH  14  22
ATOM     22  O   UNL     1      32.461  49.302  42.975  1.00  0.00    -0.493 OA
ATOM     23  C   UNL     1      31.775  48.243  42.310  1.00  0.00    +0.278 C 
ENDBRANCH  14  22
BRANCH   2  24
ATOM     24  N   UNL     1      32.848  52.246  47.688  1.00  0.00    -0.350 N 
ATOM     25  C   UNL     1      33.824  53.158  48.043  1.00  0.00    +0.217 C 
ATOM     26  O   UNL     1      33.917  53.733  49.124  1.00  0.00    -0.275 OA
ATOM     27  H   UNL     1      32.905  51.830  46.764  1.00  0.00    +0.164 HD
ATOM     28  C   UNL     1      34.825  53.373  46.939  1.00  0.00    +0.114 C 
ENDBRANCH   2  24
BRANCH  17  29
ATOM     29  O   UNL     1      32.377  47.824  52.905  1.00  0.00    -0.493 OA
ATOM     30  C   UNL     1      31.021  47.628  53.244  1.00  0.00    +0.278 C 
ENDBRANCH  17  29
TORSDOF 5
ENDMDL
