MODEL 1
REMARK VINA RESULT:    -8.388      0.000      0.000
REMARK INTER + INTRA:         -14.061
REMARK INTER:                 -12.311
REMARK INTRA:                  -1.750
REMARK UNBOUND:                -1.750
REMARK SMILES COc1ccc(C2=N[C@@H](c3ccc(Cl)cc3)[C@@H](c3ccc(Cl)cc3)N2C(=O)N2CCNC(=O)C2)c(OC(C)C)c1
REMARK SMILES IDX 6 1 35 2 5 3 40 4 4 5 3 6 7 7 17 8 25 9 9 10 8 11 18 12
REMARK SMILES IDX 21 13 20 14 23 15 19 16 24 17 22 18 26 19 27 20 28 21 29 22
REMARK SMILES IDX 34 23 30 24 32 25 31 26 33 27 10 29 11 30 16 31 12 32 15 33
REMARK SMILES IDX 13 34 14 35 36 36 37 37 38 38 39 39 2 40 1 41
REMARK H PARENT 31 28
ROOT
ATOM      1  C   UNL     1     -21.979  11.501 -17.155  1.00  0.00    +0.060 A 
ATOM      2  C   UNL     1     -20.585  11.443 -17.118  1.00  0.00    +0.134 A 
ATOM      3  C   UNL     1     -22.617  12.319 -18.086  1.00  0.00    +0.019 A 
ATOM      4  C   UNL     1     -19.831  12.204 -18.011  1.00  0.00    +0.093 A 
ATOM      5  C   UNL     1     -21.864  13.080 -18.979  1.00  0.00    +0.047 A 
ATOM      6  C   UNL     1     -20.471  13.023 -18.942  1.00  0.00    +0.122 A 
ENDROOT
BRANCH   1   7
ATOM      7  C   UNL     1     -22.789  10.708 -16.226  1.00  0.00    +0.144 C 
ATOM      8  C   UNL     1     -24.190  10.271 -14.461  1.00  0.00    +0.153 C 
ATOM      9  N   UNL     1     -23.712  11.316 -15.361  1.00  0.00    -0.268 N 
ATOM     10  C   UNL     1     -23.768   8.988 -15.213  1.00  0.00    +0.165 C 
ATOM     11  N   UNL     1     -22.681   9.415 -16.142  1.00  0.00    -0.257 NA
BRANCH   8  12
ATOM     12  C   UNL     1     -23.615  10.440 -13.061  1.00  0.00    -0.022 A 
ATOM     13  C   UNL     1     -22.562  10.749 -10.496  1.00  0.00    +0.041 A 
ATOM     14  C   UNL     1     -23.874  10.307 -10.662  1.00  0.00    +0.021 A 
ATOM     15  C   UNL     1     -21.777  11.039 -11.612  1.00  0.00    +0.021 A 
ATOM     16  C   UNL     1     -24.401  10.152 -11.944  1.00  0.00    +0.007 A 
ATOM     17  C   UNL     1     -22.303  10.884 -12.894  1.00  0.00    +0.007 A 
ATOM     18 Cl   UNL     1     -21.913  10.941  -8.914  1.00  0.00    -0.084 Cl
ENDBRANCH   8  12
BRANCH   9  19
ATOM     19  C   UNL     1     -23.970  12.686 -15.170  1.00  0.00    +0.326 C 
ATOM     20  O   UNL     1     -23.046  13.495 -15.035  1.00  0.00    -0.248 OA
BRANCH  19  21
ATOM     21  N   UNL     1     -25.319  13.047 -15.051  1.00  0.00    -0.313 N 
ATOM     22  C   UNL     1     -25.900  13.255 -13.732  1.00  0.00    +0.143 C 
ATOM     23  C   UNL     1     -26.155  13.494 -16.163  1.00  0.00    +0.221 C 
ATOM     24  C   UNL     1     -26.090  14.742 -13.532  1.00  0.00    +0.137 C 
ATOM     25  C   UNL     1     -26.811  14.849 -15.926  1.00  0.00    +0.239 C 
ATOM     26  N   UNL     1     -26.830  15.328 -14.633  1.00  0.00    -0.353 N 
ATOM     27  O   UNL     1     -27.384  15.431 -16.849  1.00  0.00    -0.273 OA
ATOM     28  H   UNL     1     -27.292  16.216 -14.469  1.00  0.00    +0.163 HD
ENDBRANCH  19  21
ENDBRANCH   9  19
BRANCH  10  29
ATOM     29  C   UNL     1     -23.454   7.777 -14.365  1.00  0.00    -0.021 A 
ATOM     30  C   UNL     1     -24.460   6.859 -14.062  1.00  0.00    +0.007 A 
ATOM     31  C   UNL     1     -22.159   7.577 -13.887  1.00  0.00    +0.007 A 
ATOM     32  C   UNL     1     -24.170   5.741 -13.280  1.00  0.00    +0.021 A 
ATOM     33  C   UNL     1     -21.870   6.458 -13.105  1.00  0.00    +0.021 A 
ATOM     34  C   UNL     1     -22.875   5.540 -12.802  1.00  0.00    +0.041 A 
ATOM     35 Cl   UNL     1     -22.518   4.161 -11.837  1.00  0.00    -0.084 Cl
ENDBRANCH  10  29
ENDBRANCH   1   7
BRANCH   2  36
ATOM     36  O   UNL     1     -19.941  10.649 -16.216  1.00  0.00    -0.490 OA
BRANCH  36  37
ATOM     37  C   UNL     1     -19.117   9.611 -16.741  1.00  0.00    +0.167 C 
ATOM     38  C   UNL     1     -19.347   8.337 -15.942  1.00  0.00    +0.052 C 
ATOM     39  C   UNL     1     -17.663  10.055 -16.694  1.00  0.00    +0.052 C 
ENDBRANCH  36  37
ENDBRANCH   2  36
BRANCH   6  40
ATOM     40  O   UNL     1     -19.735  13.766 -19.813  1.00  0.00    -0.497 OA
ATOM     41  C   UNL     1     -19.708  15.177 -19.603  1.00  0.00    +0.278 C 
ENDBRANCH   6  40
TORSDOF 8
ENDMDL
MODEL 2
REMARK VINA RESULT:    -8.018      2.289      6.071
REMARK INTER + INTRA:         -13.518
REMARK INTER:                 -10.795
REMARK INTRA:                  -2.723
REMARK UNBOUND:                -1.750
REMARK SMILES COc1ccc(C2=N[C@@H](c3ccc(Cl)cc3)[C@@H](c3ccc(Cl)cc3)N2C(=O)N2CCNC(=O)C2)c(OC(C)C)c1
REMARK SMILES IDX 6 1 35 2 5 3 40 4 4 5 3 6 7 7 17 8 25 9 9 10 8 11 18 12
REMARK SMILES IDX 21 13 20 14 23 15 19 16 24 17 22 18 26 19 27 20 28 21 29 22
REMARK SMILES IDX 34 23 30 24 32 25 31 26 33 27 10 29 11 30 16 31 12 32 15 33
REMARK SMILES IDX 13 34 14 35 36 36 37 37 38 38 39 39 2 40 1 41
REMARK H PARENT 31 28
ROOT
ATOM      1  C   UNL     1     -23.807  11.014 -17.087  1.00  0.00    +0.060 A 
ATOM      2  C   UNL     1     -23.527  11.953 -18.080  1.00  0.00    +0.134 A 
ATOM      3  C   UNL     1     -24.930  10.195 -17.199  1.00  0.00    +0.019 A 
ATOM      4  C   UNL     1     -24.371  12.073 -19.184  1.00  0.00    +0.093 A 
ATOM      5  C   UNL     1     -25.774  10.315 -18.303  1.00  0.00    +0.047 A 
ATOM      6  C   UNL     1     -25.495  11.254 -19.295  1.00  0.00    +0.122 A 
ENDROOT
BRANCH   1   7
ATOM      7  C   UNL     1     -22.932  10.871 -15.919  1.00  0.00    +0.144 C 
ATOM      8  C   UNL     1     -21.334   9.945 -14.557  1.00  0.00    +0.153 C 
ATOM      9  N   UNL     1     -21.860   9.966 -15.918  1.00  0.00    -0.268 N 
ATOM     10  C   UNL     1     -21.942  11.236 -13.963  1.00  0.00    +0.165 C 
ATOM     11  N   UNL     1     -23.116  11.555 -14.829  1.00  0.00    -0.257 NA
BRANCH   8  12
ATOM     12  C   UNL     1     -21.698   8.650 -13.841  1.00  0.00    -0.022 A 
ATOM     13  C   UNL     1     -22.364   6.278 -12.533  1.00  0.00    +0.041 A 
ATOM     14  C   UNL     1     -23.349   7.011 -13.192  1.00  0.00    +0.021 A 
ATOM     15  C   UNL     1     -21.044   6.731 -12.526  1.00  0.00    +0.021 A 
ATOM     16  C   UNL     1     -23.018   8.196 -13.847  1.00  0.00    +0.007 A 
ATOM     17  C   UNL     1     -20.711   7.917 -13.181  1.00  0.00    +0.007 A 
ATOM     18 Cl   UNL     1     -22.774   4.815 -11.725  1.00  0.00    -0.084 Cl
ENDBRANCH   8  12
BRANCH   9  19
ATOM     19  C   UNL     1     -21.485   9.041 -16.911  1.00  0.00    +0.326 C 
ATOM     20  O   UNL     1     -22.219   8.092 -17.206  1.00  0.00    -0.248 OA
BRANCH  19  21
ATOM     21  N   UNL     1     -20.209   9.215 -17.463  1.00  0.00    -0.313 N 
ATOM     22  C   UNL     1     -19.851  10.487 -18.074  1.00  0.00    +0.143 C 
ATOM     23  C   UNL     1     -19.087   8.303 -17.251  1.00  0.00    +0.221 C 
ATOM     24  C   UNL     1     -18.906  11.209 -17.140  1.00  0.00    +0.137 C 
ATOM     25  C   UNL     1     -17.843   8.987 -16.697  1.00  0.00    +0.239 C 
ATOM     26  N   UNL     1     -17.787  10.362 -16.772  1.00  0.00    -0.353 N 
ATOM     27  O   UNL     1     -16.892   8.314 -16.293  1.00  0.00    -0.273 OA
ATOM     28  H   UNL     1     -16.946  10.817 -16.431  1.00  0.00    +0.163 HD
ENDBRANCH  19  21
ENDBRANCH   9  19
BRANCH  10  29
ATOM     29  C   UNL     1     -22.218  11.236 -12.477  1.00  0.00    -0.021 A 
ATOM     30  C   UNL     1     -23.533  11.198 -12.012  1.00  0.00    +0.007 A 
ATOM     31  C   UNL     1     -21.159  11.274 -11.571  1.00  0.00    +0.007 A 
ATOM     32  C   UNL     1     -23.788  11.198 -10.641  1.00  0.00    +0.021 A 
ATOM     33  C   UNL     1     -21.414  11.273 -10.199  1.00  0.00    +0.021 A 
ATOM     34  C   UNL     1     -22.729  11.235  -9.734  1.00  0.00    +0.041 A 
ATOM     35 Cl   UNL     1     -23.044  11.234  -8.043  1.00  0.00    -0.084 Cl
ENDBRANCH  10  29
ENDBRANCH   1   7
BRANCH   2  36
ATOM     36  O   UNL     1     -22.434  12.762 -17.990  1.00  0.00    -0.490 OA
BRANCH  36  37
ATOM     37  C   UNL     1     -22.674  14.161 -17.860  1.00  0.00    +0.167 C 
ATOM     38  C   UNL     1     -21.364  14.866 -17.541  1.00  0.00    +0.052 C 
ATOM     39  C   UNL     1     -23.719  14.391 -16.778  1.00  0.00    +0.052 C 
ENDBRANCH  36  37
ENDBRANCH   2  36
BRANCH   6  40
ATOM     40  O   UNL     1     -26.319  11.371 -20.372  1.00  0.00    -0.497 OA
ATOM     41  C   UNL     1     -27.065  12.581 -20.491  1.00  0.00    +0.278 C 
ENDBRANCH   6  40
TORSDOF 8
ENDMDL
MODEL 3
REMARK VINA RESULT:    -7.954      1.292      2.497
REMARK INTER + INTRA:         -13.425
REMARK INTER:                 -10.746
REMARK INTRA:                  -2.679
REMARK UNBOUND:                -1.750
REMARK SMILES COc1ccc(C2=N[C@@H](c3ccc(Cl)cc3)[C@@H](c3ccc(Cl)cc3)N2C(=O)N2CCNC(=O)C2)c(OC(C)C)c1
REMARK SMILES IDX 6 1 35 2 5 3 40 4 4 5 3 6 7 7 17 8 25 9 9 10 8 11 18 12
REMARK SMILES IDX 21 13 20 14 23 15 19 16 24 17 22 18 26 19 27 20 28 21 29 22
REMARK SMILES IDX 34 23 30 24 32 25 31 26 33 27 10 29 11 30 16 31 12 32 15 33
REMARK SMILES IDX 13 34 14 35 36 36 37 37 38 38 39 39 2 40 1 41
REMARK H PARENT 31 28
ROOT
ATOM      1  C   UNL     1     -22.176  11.904 -17.190  1.00  0.00    +0.060 A 
ATOM      2  C   UNL     1     -22.753  12.442 -18.341  1.00  0.00    +0.134 A 
ATOM      3  C   UNL     1     -20.841  12.170 -16.890  1.00  0.00    +0.019 A 
ATOM      4  C   UNL     1     -21.994  13.246 -19.191  1.00  0.00    +0.093 A 
ATOM      5  C   UNL     1     -20.082  12.974 -17.740  1.00  0.00    +0.047 A 
ATOM      6  C   UNL     1     -20.658  13.511 -18.891  1.00  0.00    +0.122 A 
ENDROOT
BRANCH   1   7
ATOM      7  C   UNL     1     -22.957  11.057 -16.282  1.00  0.00    +0.144 C 
ATOM      8  C   UNL     1     -24.319  10.521 -14.515  1.00  0.00    +0.153 C 
ATOM      9  N   UNL     1     -23.873  11.612 -15.375  1.00  0.00    -0.268 N 
ATOM     10  C   UNL     1     -23.891   9.279 -15.330  1.00  0.00    +0.165 C 
ATOM     11  N   UNL     1     -22.827   9.764 -16.259  1.00  0.00    -0.257 NA
BRANCH   8  12
ATOM     12  C   UNL     1     -23.720  10.637 -13.118  1.00  0.00    -0.022 A 
ATOM     13  C   UNL     1     -22.625  10.849 -10.561  1.00  0.00    +0.041 A 
ATOM     14  C   UNL     1     -23.961  10.485 -10.719  1.00  0.00    +0.021 A 
ATOM     15  C   UNL     1     -21.836  11.109 -11.682  1.00  0.00    +0.021 A 
ATOM     16  C   UNL     1     -24.510  10.378 -11.997  1.00  0.00    +0.007 A 
ATOM     17  C   UNL     1     -22.383  11.002 -12.961  1.00  0.00    +0.007 A 
ATOM     18 Cl   UNL     1     -21.949  10.981  -8.984  1.00  0.00    -0.084 Cl
ENDBRANCH   8  12
BRANCH   9  19
ATOM     19  C   UNL     1     -24.148  12.968 -15.119  1.00  0.00    +0.326 C 
ATOM     20  O   UNL     1     -23.235  13.784 -14.962  1.00  0.00    -0.248 OA
BRANCH  19  21
ATOM     21  N   UNL     1     -25.501  13.302 -14.963  1.00  0.00    -0.313 N 
ATOM     22  C   UNL     1     -26.064  13.437 -13.628  1.00  0.00    +0.143 C 
ATOM     23  C   UNL     1     -26.360  13.788 -16.040  1.00  0.00    +0.221 C 
ATOM     24  C   UNL     1     -26.274  14.911 -13.354  1.00  0.00    +0.137 C 
ATOM     25  C   UNL     1     -27.032  15.120 -15.729  1.00  0.00    +0.239 C 
ATOM     26  N   UNL     1     -27.038  15.536 -14.415  1.00  0.00    -0.353 N 
ATOM     27  O   UNL     1     -27.628  15.736 -16.614  1.00  0.00    -0.273 OA
ATOM     28  H   UNL     1     -27.512  16.408 -14.202  1.00  0.00    +0.163 HD
ENDBRANCH  19  21
ENDBRANCH   9  19
BRANCH  10  29
ATOM     29  C   UNL     1     -23.542   8.037 -14.543  1.00  0.00    -0.021 A 
ATOM     30  C   UNL     1     -22.208   7.737 -14.268  1.00  0.00    +0.007 A 
ATOM     31  C   UNL     1     -24.555   7.191 -14.091  1.00  0.00    +0.007 A 
ATOM     32  C   UNL     1     -21.887   6.591 -13.542  1.00  0.00    +0.021 A 
ATOM     33  C   UNL     1     -24.233   6.044 -13.364  1.00  0.00    +0.021 A 
ATOM     34  C   UNL     1     -22.898   5.744 -13.089  1.00  0.00    +0.041 A 
ATOM     35 Cl   UNL     1     -22.501   4.331 -12.193  1.00  0.00    -0.084 Cl
ENDBRANCH  10  29
ENDBRANCH   1   7
BRANCH   2  36
ATOM     36  O   UNL     1     -24.057  12.194 -18.652  1.00  0.00    -0.490 OA
BRANCH  36  37
ATOM     37  C   UNL     1     -24.305  11.336 -19.763  1.00  0.00    +0.167 C 
ATOM     38  C   UNL     1     -25.191  12.060 -20.766  1.00  0.00    +0.052 C 
ATOM     39  C   UNL     1     -24.946  10.048 -19.268  1.00  0.00    +0.052 C 
ENDBRANCH  36  37
ENDBRANCH   2  36
BRANCH   6  40
ATOM     40  O   UNL     1     -19.917  14.295 -19.721  1.00  0.00    -0.497 OA
ATOM     41  C   UNL     1     -20.089  14.101 -21.123  1.00  0.00    +0.278 C 
ENDBRANCH   6  40
TORSDOF 8
ENDMDL
MODEL 4
REMARK VINA RESULT:    -7.950      3.393      7.691
REMARK INTER + INTRA:         -13.418
REMARK INTER:                 -11.195
REMARK INTRA:                  -2.223
REMARK UNBOUND:                -1.750
REMARK SMILES COc1ccc(C2=N[C@@H](c3ccc(Cl)cc3)[C@@H](c3ccc(Cl)cc3)N2C(=O)N2CCNC(=O)C2)c(OC(C)C)c1
REMARK SMILES IDX 6 1 35 2 5 3 40 4 4 5 3 6 7 7 17 8 25 9 9 10 8 11 18 12
REMARK SMILES IDX 21 13 20 14 23 15 19 16 24 17 22 18 26 19 27 20 28 21 29 22
REMARK SMILES IDX 34 23 30 24 32 25 31 26 33 27 10 29 11 30 16 31 12 32 15 33
REMARK SMILES IDX 13 34 14 35 36 36 37 37 38 38 39 39 2 40 1 41
REMARK H PARENT 31 28
ROOT
ATOM      1  C   UNL     1     -23.510   8.359 -13.896  1.00  0.00    +0.060 A 
ATOM      2  C   UNL     1     -22.630   8.744 -12.883  1.00  0.00    +0.134 A 
ATOM      3  C   UNL     1     -23.801   7.009 -14.091  1.00  0.00    +0.019 A 
ATOM      4  C   UNL     1     -22.042   7.778 -12.067  1.00  0.00    +0.093 A 
ATOM      5  C   UNL     1     -23.213   6.044 -13.274  1.00  0.00    +0.047 A 
ATOM      6  C   UNL     1     -22.333   6.428 -12.263  1.00  0.00    +0.122 A 
ENDROOT
BRANCH   1   7
ATOM      7  C   UNL     1     -24.140   9.358 -14.765  1.00  0.00    +0.144 C 
ATOM      8  C   UNL     1     -24.481  10.638 -16.639  1.00  0.00    +0.153 C 
ATOM      9  N   UNL     1     -23.836   9.431 -16.133  1.00  0.00    -0.268 N 
ATOM     10  C   UNL     1     -25.501  10.945 -15.519  1.00  0.00    +0.165 C 
ATOM     11  N   UNL     1     -24.988  10.233 -14.311  1.00  0.00    -0.257 NA
BRANCH   8  12
ATOM     12  C   UNL     1     -23.461  11.732 -16.927  1.00  0.00    -0.022 A 
ATOM     13  C   UNL     1     -21.594  13.737 -17.455  1.00  0.00    +0.041 A 
ATOM     14  C   UNL     1     -22.313  13.160 -18.501  1.00  0.00    +0.021 A 
ATOM     15  C   UNL     1     -21.807  13.310 -16.144  1.00  0.00    +0.021 A 
ATOM     16  C   UNL     1     -23.247  12.158 -18.238  1.00  0.00    +0.007 A 
ATOM     17  C   UNL     1     -22.742  12.308 -15.880  1.00  0.00    +0.007 A 
ATOM     18 Cl   UNL     1     -20.441  14.972 -17.781  1.00  0.00    -0.084 Cl
ENDBRANCH   8  12
BRANCH   9  19
ATOM     19  C   UNL     1     -22.897   8.683 -16.868  1.00  0.00    +0.326 C 
ATOM     20  O   UNL     1     -23.226   8.083 -17.897  1.00  0.00    -0.248 OA
BRANCH  19  21
ATOM     21  N   UNL     1     -21.614   8.591 -16.312  1.00  0.00    -0.313 N 
ATOM     22  C   UNL     1     -20.921   7.311 -16.295  1.00  0.00    +0.143 C 
ATOM     23  C   UNL     1     -20.780   9.741 -15.967  1.00  0.00    +0.221 C 
ATOM     24  C   UNL     1     -19.828   7.354 -17.340  1.00  0.00    +0.137 C 
ATOM     25  C   UNL     1     -19.405   9.714 -16.623  1.00  0.00    +0.239 C 
ATOM     26  N   UNL     1     -18.982   8.519 -17.163  1.00  0.00    -0.353 N 
ATOM     27  O   UNL     1     -18.675  10.706 -16.574  1.00  0.00    -0.273 OA
ATOM     28  H   UNL     1     -18.054   8.492 -17.574  1.00  0.00    +0.163 HD
ENDBRANCH  19  21
ENDBRANCH   9  19
BRANCH  10  29
ATOM     29  C   UNL     1     -25.860  12.398 -15.307  1.00  0.00    -0.021 A 
ATOM     30  C   UNL     1     -26.351  13.157 -16.370  1.00  0.00    +0.007 A 
ATOM     31  C   UNL     1     -25.700  12.979 -14.050  1.00  0.00    +0.007 A 
ATOM     32  C   UNL     1     -26.682  14.497 -16.174  1.00  0.00    +0.021 A 
ATOM     33  C   UNL     1     -26.031  14.321 -13.855  1.00  0.00    +0.021 A 
ATOM     34  C   UNL     1     -26.523  15.080 -14.917  1.00  0.00    +0.041 A 
ATOM     35 Cl   UNL     1     -26.932  16.734 -14.676  1.00  0.00    -0.084 Cl
ENDBRANCH  10  29
ENDBRANCH   1   7
BRANCH   2  36
ATOM     36  O   UNL     1     -22.334  10.058 -12.676  1.00  0.00    -0.490 OA
BRANCH  36  37
ATOM     37  C   UNL     1     -22.399  10.531 -11.333  1.00  0.00    +0.167 C 
ATOM     38  C   UNL     1     -23.743  11.205 -11.104  1.00  0.00    +0.052 C 
ATOM     39  C   UNL     1     -21.238  11.482 -11.080  1.00  0.00    +0.052 C 
ENDBRANCH  36  37
ENDBRANCH   2  36
BRANCH   6  40
ATOM     40  O   UNL     1     -21.759   5.486 -11.466  1.00  0.00    -0.497 OA
ATOM     41  C   UNL     1     -21.970   4.120 -11.817  1.00  0.00    +0.278 C 
ENDBRANCH   6  40
TORSDOF 8
ENDMDL
MODEL 5
REMARK VINA RESULT:    -7.896      3.742      7.039
REMARK INTER + INTRA:         -13.339
REMARK INTER:                  -9.930
REMARK INTRA:                  -3.409
REMARK UNBOUND:                -1.750
REMARK SMILES COc1ccc(C2=N[C@@H](c3ccc(Cl)cc3)[C@@H](c3ccc(Cl)cc3)N2C(=O)N2CCNC(=O)C2)c(OC(C)C)c1
REMARK SMILES IDX 6 1 35 2 5 3 40 4 4 5 3 6 7 7 17 8 25 9 9 10 8 11 18 12
REMARK SMILES IDX 21 13 20 14 23 15 19 16 24 17 22 18 26 19 27 20 28 21 29 22
REMARK SMILES IDX 34 23 30 24 32 25 31 26 33 27 10 29 11 30 16 31 12 32 15 33
REMARK SMILES IDX 13 34 14 35 36 36 37 37 38 38 39 39 2 40 1 41
REMARK H PARENT 31 28
ROOT
ATOM      1  C   UNL     1     -21.917   8.431 -13.940  1.00  0.00    +0.060 A 
ATOM      2  C   UNL     1     -22.065   7.332 -14.787  1.00  0.00    +0.134 A 
ATOM      3  C   UNL     1     -21.522   8.242 -12.616  1.00  0.00    +0.019 A 
ATOM      4  C   UNL     1     -21.819   6.045 -14.310  1.00  0.00    +0.093 A 
ATOM      5  C   UNL     1     -21.275   6.955 -12.139  1.00  0.00    +0.047 A 
ATOM      6  C   UNL     1     -21.424   5.856 -12.984  1.00  0.00    +0.122 A 
ENDROOT
BRANCH   1   7
ATOM      7  C   UNL     1     -22.170   9.792 -14.423  1.00  0.00    +0.144 C 
ATOM      8  C   UNL     1     -23.379  11.614 -15.119  1.00  0.00    +0.153 C 
ATOM      9  N   UNL     1     -23.459  10.346 -14.401  1.00  0.00    -0.268 N 
ATOM     10  C   UNL     1     -21.855  11.875 -15.133  1.00  0.00    +0.165 C 
ATOM     11  N   UNL     1     -21.224  10.540 -14.909  1.00  0.00    -0.257 NA
BRANCH   8  12
ATOM     12  C   UNL     1     -24.049  11.521 -16.484  1.00  0.00    -0.022 A 
ATOM     13  C   UNL     1     -25.278  11.350 -18.983  1.00  0.00    +0.041 A 
ATOM     14  C   UNL     1     -24.330  10.399 -18.605  1.00  0.00    +0.021 A 
ATOM     15  C   UNL     1     -25.611  12.387 -18.112  1.00  0.00    +0.021 A 
ATOM     16  C   UNL     1     -23.716  10.484 -17.357  1.00  0.00    +0.007 A 
ATOM     17  C   UNL     1     -24.997  12.472 -16.862  1.00  0.00    +0.007 A 
ATOM     18 Cl   UNL     1     -26.035  11.245 -20.525  1.00  0.00    -0.084 Cl
ENDBRANCH   8  12
BRANCH   9  19
ATOM     19  C   UNL     1     -24.671   9.741 -14.022  1.00  0.00    +0.326 C 
ATOM     20  O   UNL     1     -25.238   8.931 -14.762  1.00  0.00    -0.248 OA
BRANCH  19  21
ATOM     21  N   UNL     1     -25.227  10.183 -12.813  1.00  0.00    -0.313 N 
ATOM     22  C   UNL     1     -24.719   9.665 -11.550  1.00  0.00    +0.143 C 
ATOM     23  C   UNL     1     -26.118  11.334 -12.686  1.00  0.00    +0.221 C 
ATOM     24  C   UNL     1     -23.896  10.752 -10.894  1.00  0.00    +0.137 C 
ATOM     25  C   UNL     1     -25.632  12.373 -11.683  1.00  0.00    +0.239 C 
ATOM     26  N   UNL     1     -24.646  11.990 -10.799  1.00  0.00    -0.353 N 
ATOM     27  O   UNL     1     -26.180  13.475 -11.615  1.00  0.00    -0.273 OA
ATOM     28  H   UNL     1     -24.342  12.672 -10.111  1.00  0.00    +0.163 HD
ENDBRANCH  19  21
ENDBRANCH   9  19
BRANCH  10  29
ATOM     29  C   UNL     1     -21.311  12.657 -16.306  1.00  0.00    -0.021 A 
ATOM     30  C   UNL     1     -21.655  13.999 -16.469  1.00  0.00    +0.007 A 
ATOM     31  C   UNL     1     -20.465  12.037 -17.225  1.00  0.00    +0.007 A 
ATOM     32  C   UNL     1     -21.153  14.721 -17.551  1.00  0.00    +0.021 A 
ATOM     33  C   UNL     1     -19.962  12.760 -18.308  1.00  0.00    +0.021 A 
ATOM     34  C   UNL     1     -20.306  14.103 -18.470  1.00  0.00    +0.041 A 
ATOM     35 Cl   UNL     1     -19.687  14.994 -19.805  1.00  0.00    -0.084 Cl
ENDBRANCH  10  29
ENDBRANCH   1   7
BRANCH   2  36
ATOM     36  O   UNL     1     -22.450   7.496 -16.085  1.00  0.00    -0.490 OA
BRANCH  36  37
ATOM     37  C   UNL     1     -21.556   7.022 -17.089  1.00  0.00    +0.167 C 
ATOM     38  C   UNL     1     -20.536   8.106 -17.403  1.00  0.00    +0.052 C 
ATOM     39  C   UNL     1     -22.353   6.620 -18.320  1.00  0.00    +0.052 C 
ENDBRANCH  36  37
ENDBRANCH   2  36
BRANCH   6  40
ATOM     40  O   UNL     1     -21.185   4.600 -12.519  1.00  0.00    -0.497 OA
ATOM     41  C   UNL     1     -22.185   4.012 -11.690  1.00  0.00    +0.278 C 
ENDBRANCH   6  40
TORSDOF 8
ENDMDL
MODEL 6
REMARK VINA RESULT:    -7.891      2.848      6.405
REMARK INTER + INTRA:         -13.332
REMARK INTER:                  -9.968
REMARK INTRA:                  -3.364
REMARK UNBOUND:                -1.750
REMARK SMILES COc1ccc(C2=N[C@@H](c3ccc(Cl)cc3)[C@@H](c3ccc(Cl)cc3)N2C(=O)N2CCNC(=O)C2)c(OC(C)C)c1
REMARK SMILES IDX 6 1 35 2 5 3 40 4 4 5 3 6 7 7 17 8 25 9 9 10 8 11 18 12
REMARK SMILES IDX 21 13 20 14 23 15 19 16 24 17 22 18 26 19 27 20 28 21 29 22
REMARK SMILES IDX 34 23 30 24 32 25 31 26 33 27 10 29 11 30 16 31 12 32 15 33
REMARK SMILES IDX 13 34 14 35 36 36 37 37 38 38 39 39 2 40 1 41
REMARK H PARENT 31 28
ROOT
ATOM      1  C   UNL     1     -24.200  10.312 -17.114  1.00  0.00    +0.060 A 
ATOM      2  C   UNL     1     -25.288   9.439 -17.095  1.00  0.00    +0.134 A 
ATOM      3  C   UNL     1     -24.020  11.178 -18.192  1.00  0.00    +0.019 A 
ATOM      4  C   UNL     1     -26.196   9.434 -18.154  1.00  0.00    +0.093 A 
ATOM      5  C   UNL     1     -24.928  11.173 -19.250  1.00  0.00    +0.047 A 
ATOM      6  C   UNL     1     -26.016  10.301 -19.232  1.00  0.00    +0.122 A 
ENDROOT
BRANCH   1   7
ATOM      7  C   UNL     1     -23.235  10.334 -16.010  1.00  0.00    +0.144 C 
ATOM      8  C   UNL     1     -21.469   9.654 -14.713  1.00  0.00    +0.153 C 
ATOM      9  N   UNL     1     -22.089   9.524 -16.027  1.00  0.00    -0.268 N 
ATOM     10  C   UNL     1     -22.145  10.933 -14.168  1.00  0.00    +0.165 C 
ATOM     11  N   UNL     1     -23.401  11.084 -14.961  1.00  0.00    -0.257 NA
BRANCH   8  12
ATOM     12  C   UNL     1     -21.665   8.393 -13.880  1.00  0.00    -0.022 A 
ATOM     13  C   UNL     1     -22.023   6.085 -12.355  1.00  0.00    +0.041 A 
ATOM     14  C   UNL     1     -20.742   6.599 -12.550  1.00  0.00    +0.021 A 
ATOM     15  C   UNL     1     -23.126   6.723 -12.924  1.00  0.00    +0.021 A 
ATOM     16  C   UNL     1     -20.562   7.753 -13.312  1.00  0.00    +0.007 A 
ATOM     17  C   UNL     1     -22.947   7.878 -13.685  1.00  0.00    +0.007 A 
ATOM     18 Cl   UNL     1     -22.245   4.660 -11.415  1.00  0.00    -0.084 Cl
ENDBRANCH   8  12
BRANCH   9  19
ATOM     19  C   UNL     1     -21.706   8.559 -16.977  1.00  0.00    +0.326 C 
ATOM     20  O   UNL     1     -22.401   7.558 -17.184  1.00  0.00    -0.248 OA
BRANCH  19  21
ATOM     21  N   UNL     1     -20.461   8.760 -17.590  1.00  0.00    -0.313 N 
ATOM     22  C   UNL     1     -20.264   9.904 -18.468  1.00  0.00    +0.143 C 
ATOM     23  C   UNL     1     -19.236   8.054 -17.222  1.00  0.00    +0.221 C 
ATOM     24  C   UNL     1     -19.410  10.916 -17.736  1.00  0.00    +0.137 C 
ATOM     25  C   UNL     1     -18.083   8.983 -16.862  1.00  0.00    +0.239 C 
ATOM     26  N   UNL     1     -18.196  10.306 -17.230  1.00  0.00    -0.353 N 
ATOM     27  O   UNL     1     -17.057   8.529 -16.353  1.00  0.00    -0.273 OA
ATOM     28  H   UNL     1     -17.415  10.920 -17.018  1.00  0.00    +0.163 HD
ENDBRANCH  19  21
ENDBRANCH   9  19
BRANCH  10  29
ATOM     29  C   UNL     1     -22.314  11.026 -12.669  1.00  0.00    -0.021 A 
ATOM     30  C   UNL     1     -23.592  11.015 -12.109  1.00  0.00    +0.007 A 
ATOM     31  C   UNL     1     -21.192  11.123 -11.846  1.00  0.00    +0.007 A 
ATOM     32  C   UNL     1     -23.747  11.101 -10.726  1.00  0.00    +0.021 A 
ATOM     33  C   UNL     1     -21.349  11.209 -10.462  1.00  0.00    +0.021 A 
ATOM     34  C   UNL     1     -22.627  11.198  -9.902  1.00  0.00    +0.041 A 
ATOM     35 Cl   UNL     1     -22.819  11.304  -8.196  1.00  0.00    -0.084 Cl
ENDBRANCH  10  29
ENDBRANCH   1   7
BRANCH   2  36
ATOM     36  O   UNL     1     -25.482   8.585 -16.051  1.00  0.00    -0.490 OA
BRANCH  36  37
ATOM     37  C   UNL     1     -26.686   8.740 -15.303  1.00  0.00    +0.167 C 
ATOM     38  C   UNL     1     -26.345   9.217 -13.899  1.00  0.00    +0.052 C 
ATOM     39  C   UNL     1     -27.439   7.419 -15.285  1.00  0.00    +0.052 C 
ENDBRANCH  36  37
ENDBRANCH   2  36
BRANCH   6  40
ATOM     40  O   UNL     1     -26.901  10.294 -20.266  1.00  0.00    -0.497 OA
ATOM     41  C   UNL     1     -26.436  10.779 -21.524  1.00  0.00    +0.278 C 
ENDBRANCH   6  40
TORSDOF 8
ENDMDL
MODEL 7
REMARK VINA RESULT:    -7.731      3.331      7.675
REMARK INTER + INTRA:         -13.097
REMARK INTER:                 -10.853
REMARK INTRA:                  -2.244
REMARK UNBOUND:                -1.750
REMARK SMILES COc1ccc(C2=N[C@@H](c3ccc(Cl)cc3)[C@@H](c3ccc(Cl)cc3)N2C(=O)N2CCNC(=O)C2)c(OC(C)C)c1
REMARK SMILES IDX 6 1 35 2 5 3 40 4 4 5 3 6 7 7 17 8 25 9 9 10 8 11 18 12
REMARK SMILES IDX 21 13 20 14 23 15 19 16 24 17 22 18 26 19 27 20 28 21 29 22
REMARK SMILES IDX 34 23 30 24 32 25 31 26 33 27 10 29 11 30 16 31 12 32 15 33
REMARK SMILES IDX 13 34 14 35 36 36 37 37 38 38 39 39 2 40 1 41
REMARK H PARENT 31 28
ROOT
ATOM      1  C   UNL     1     -22.945  11.522 -13.873  1.00  0.00    +0.060 A 
ATOM      2  C   UNL     1     -24.196  11.740 -13.295  1.00  0.00    +0.134 A 
ATOM      3  C   UNL     1     -21.874  11.113 -13.079  1.00  0.00    +0.019 A 
ATOM      4  C   UNL     1     -24.375  11.548 -11.925  1.00  0.00    +0.093 A 
ATOM      5  C   UNL     1     -22.052  10.921 -11.710  1.00  0.00    +0.047 A 
ATOM      6  C   UNL     1     -23.302  11.139 -11.132  1.00  0.00    +0.122 A 
ENDROOT
BRANCH   1   7
ATOM      7  C   UNL     1     -22.737  11.716 -15.311  1.00  0.00    +0.144 C 
ATOM      8  C   UNL     1     -22.329  11.154 -17.498  1.00  0.00    +0.153 C 
ATOM      9  N   UNL     1     -22.757  10.634 -16.203  1.00  0.00    -0.268 N 
ATOM     10  C   UNL     1     -22.509  12.677 -17.302  1.00  0.00    +0.165 C 
ATOM     11  N   UNL     1     -22.505  12.888 -15.824  1.00  0.00    -0.257 NA
BRANCH   8  12
ATOM     12  C   UNL     1     -20.920  10.691 -17.844  1.00  0.00    -0.022 A 
ATOM     13  C   UNL     1     -18.339   9.842 -18.479  1.00  0.00    +0.041 A 
ATOM     14  C   UNL     1     -19.413   9.476 -19.290  1.00  0.00    +0.021 A 
ATOM     15  C   UNL     1     -18.556  10.631 -17.349  1.00  0.00    +0.021 A 
ATOM     16  C   UNL     1     -20.703   9.900 -18.974  1.00  0.00    +0.007 A 
ATOM     17  C   UNL     1     -19.846  11.056 -17.032  1.00  0.00    +0.007 A 
ATOM     18 Cl   UNL     1     -16.748   9.318 -18.870  1.00  0.00    -0.084 Cl
ENDBRANCH   8  12
BRANCH   9  19
ATOM     19  C   UNL     1     -22.890   9.261 -15.921  1.00  0.00    +0.326 C 
ATOM     20  O   UNL     1     -21.896   8.548 -15.745  1.00  0.00    -0.248 OA
BRANCH  19  21
ATOM     21  N   UNL     1     -24.195   8.752 -15.948  1.00  0.00    -0.313 N 
ATOM     22  C   UNL     1     -24.649   7.868 -14.884  1.00  0.00    +0.143 C 
ATOM     23  C   UNL     1     -25.254   9.240 -16.829  1.00  0.00    +0.221 C 
ATOM     24  C   UNL     1     -25.597   8.646 -13.998  1.00  0.00    +0.137 C 
ATOM     25  C   UNL     1     -26.512   9.675 -16.087  1.00  0.00    +0.239 C 
ATOM     26  N   UNL     1     -26.649   9.269 -14.777  1.00  0.00    -0.353 N 
ATOM     27  O   UNL     1     -27.405  10.281 -16.682  1.00  0.00    -0.273 OA
ATOM     28  H   UNL     1     -27.500   9.533 -14.291  1.00  0.00    +0.163 HD
ENDBRANCH  19  21
ENDBRANCH   9  19
BRANCH  10  29
ATOM     29  C   UNL     1     -21.580  13.577 -18.084  1.00  0.00    -0.021 A 
ATOM     30  C   UNL     1     -21.305  13.299 -19.424  1.00  0.00    +0.007 A 
ATOM     31  C   UNL     1     -20.998  14.684 -17.467  1.00  0.00    +0.007 A 
ATOM     32  C   UNL     1     -20.448  14.130 -20.145  1.00  0.00    +0.021 A 
ATOM     33  C   UNL     1     -20.140  15.514 -18.190  1.00  0.00    +0.021 A 
ATOM     34  C   UNL     1     -19.866  15.237 -19.530  1.00  0.00    +0.041 A 
ATOM     35 Cl   UNL     1     -18.809  16.261 -20.421  1.00  0.00    -0.084 Cl
ENDBRANCH  10  29
ENDBRANCH   1   7
BRANCH   2  36
ATOM     36  O   UNL     1     -25.257  12.139 -14.052  1.00  0.00    -0.490 OA
BRANCH  36  37
ATOM     37  C   UNL     1     -25.362  13.533 -14.333  1.00  0.00    +0.167 C 
ATOM     38  C   UNL     1     -26.116  14.216 -13.202  1.00  0.00    +0.052 C 
ATOM     39  C   UNL     1     -26.057  13.723 -15.673  1.00  0.00    +0.052 C 
ENDBRANCH  36  37
ENDBRANCH   2  36
BRANCH   6  40
ATOM     40  O   UNL     1     -23.477  10.953  -9.795  1.00  0.00    -0.497 OA
ATOM     41  C   UNL     1     -22.333  11.124  -8.960  1.00  0.00    +0.278 C 
ENDBRANCH   6  40
TORSDOF 8
ENDMDL
MODEL 8
REMARK VINA RESULT:    -7.724      2.912      4.738
REMARK INTER + INTRA:         -13.086
REMARK INTER:                 -10.269
REMARK INTRA:                  -2.817
REMARK UNBOUND:                -1.750
REMARK SMILES COc1ccc(C2=N[C@@H](c3ccc(Cl)cc3)[C@@H](c3ccc(Cl)cc3)N2C(=O)N2CCNC(=O)C2)c(OC(C)C)c1
REMARK SMILES IDX 6 1 35 2 5 3 40 4 4 5 3 6 7 7 17 8 25 9 9 10 8 11 18 12
REMARK SMILES IDX 21 13 20 14 23 15 19 16 24 17 22 18 26 19 27 20 28 21 29 22
REMARK SMILES IDX 34 23 30 24 32 25 31 26 33 27 10 29 11 30 16 31 12 32 15 33
REMARK SMILES IDX 13 34 14 35 36 36 37 37 38 38 39 39 2 40 1 41
REMARK H PARENT 31 28
ROOT
ATOM      1  C   UNL     1     -20.773   9.957 -16.850  1.00  0.00    +0.060 A 
ATOM      2  C   UNL     1     -20.414   8.893 -17.679  1.00  0.00    +0.134 A 
ATOM      3  C   UNL     1     -20.304  11.241 -17.124  1.00  0.00    +0.019 A 
ATOM      4  C   UNL     1     -19.587   9.114 -18.779  1.00  0.00    +0.093 A 
ATOM      5  C   UNL     1     -19.476  11.462 -18.225  1.00  0.00    +0.047 A 
ATOM      6  C   UNL     1     -19.117  10.399 -19.052  1.00  0.00    +0.122 A 
ENDROOT
BRANCH   1   7
ATOM      7  C   UNL     1     -21.643   9.746 -15.689  1.00  0.00    +0.144 C 
ATOM      8  C   UNL     1     -23.589   9.638 -14.479  1.00  0.00    +0.153 C 
ATOM      9  N   UNL     1     -23.036   9.651 -15.829  1.00  0.00    -0.268 N 
ATOM     10  C   UNL     1     -22.345   9.293 -13.629  1.00  0.00    +0.165 C 
ATOM     11  N   UNL     1     -21.173   9.657 -14.480  1.00  0.00    -0.257 NA
BRANCH   8  12
ATOM     12  C   UNL     1     -24.274  10.958 -14.148  1.00  0.00    -0.022 A 
ATOM     13  C   UNL     1     -25.530  13.375 -13.543  1.00  0.00    +0.041 A 
ATOM     14  C   UNL     1     -24.403  13.361 -14.364  1.00  0.00    +0.021 A 
ATOM     15  C   UNL     1     -26.029  12.180 -13.023  1.00  0.00    +0.021 A 
ATOM     16  C   UNL     1     -23.775  12.153 -14.667  1.00  0.00    +0.007 A 
ATOM     17  C   UNL     1     -25.402  10.971 -13.327  1.00  0.00    +0.007 A 
ATOM     18 Cl   UNL     1     -26.304  14.865 -13.169  1.00  0.00    -0.084 Cl
ENDBRANCH   8  12
BRANCH   9  19
ATOM     19  C   UNL     1     -23.817   9.802 -16.990  1.00  0.00    +0.326 C 
ATOM     20  O   UNL     1     -23.672  10.779 -17.732  1.00  0.00    -0.248 OA
BRANCH  19  21
ATOM     21  N   UNL     1     -24.814   8.837 -17.189  1.00  0.00    -0.313 N 
ATOM     22  C   UNL     1     -24.442   7.473 -17.538  1.00  0.00    +0.143 C 
ATOM     23  C   UNL     1     -26.217   9.012 -16.822  1.00  0.00    +0.221 C 
ATOM     24  C   UNL     1     -24.661   6.601 -16.322  1.00  0.00    +0.137 C 
ATOM     25  C   UNL     1     -26.748   7.917 -15.904  1.00  0.00    +0.239 C 
ATOM     26  N   UNL     1     -26.003   6.762 -15.797  1.00  0.00    -0.353 N 
ATOM     27  O   UNL     1     -27.850   8.039 -15.366  1.00  0.00    -0.273 OA
ATOM     28  H   UNL     1     -26.370   6.020 -15.210  1.00  0.00    +0.163 HD
ENDBRANCH  19  21
ENDBRANCH   9  19
BRANCH  10  29
ATOM     29  C   UNL     1     -22.312   9.838 -12.220  1.00  0.00    -0.021 A 
ATOM     30  C   UNL     1     -23.067   9.227 -11.219  1.00  0.00    +0.007 A 
ATOM     31  C   UNL     1     -21.527  10.952 -11.921  1.00  0.00    +0.007 A 
ATOM     32  C   UNL     1     -23.037   9.730  -9.918  1.00  0.00    +0.021 A 
ATOM     33  C   UNL     1     -21.497  11.454 -10.619  1.00  0.00    +0.021 A 
ATOM     34  C   UNL     1     -22.252  10.842  -9.618  1.00  0.00    +0.041 A 
ATOM     35 Cl   UNL     1     -22.216  11.462  -8.013  1.00  0.00    -0.084 Cl
ENDBRANCH  10  29
ENDBRANCH   1   7
BRANCH   2  36
ATOM     36  O   UNL     1     -20.863   7.630 -17.429  1.00  0.00    -0.490 OA
BRANCH  36  37
ATOM     37  C   UNL     1     -20.022   6.789 -16.642  1.00  0.00    +0.167 C 
ATOM     38  C   UNL     1     -19.443   5.694 -17.525  1.00  0.00    +0.052 C 
ATOM     39  C   UNL     1     -20.828   6.217 -15.485  1.00  0.00    +0.052 C 
ENDBRANCH  36  37
ENDBRANCH   2  36
BRANCH   6  40
ATOM     40  O   UNL     1     -18.310  10.614 -20.126  1.00  0.00    -0.497 OA
ATOM     41  C   UNL     1     -17.350   9.604 -20.431  1.00  0.00    +0.278 C 
ENDBRANCH   6  40
TORSDOF 8
ENDMDL
MODEL 9
REMARK VINA RESULT:    -7.704      2.799      5.107
REMARK INTER + INTRA:         -13.057
REMARK INTER:                 -10.558
REMARK INTRA:                  -2.499
REMARK UNBOUND:                -1.750
REMARK SMILES COc1ccc(C2=N[C@@H](c3ccc(Cl)cc3)[C@@H](c3ccc(Cl)cc3)N2C(=O)N2CCNC(=O)C2)c(OC(C)C)c1
REMARK SMILES IDX 6 1 35 2 5 3 40 4 4 5 3 6 7 7 17 8 25 9 9 10 8 11 18 12
REMARK SMILES IDX 21 13 20 14 23 15 19 16 24 17 22 18 26 19 27 20 28 21 29 22
REMARK SMILES IDX 34 23 30 24 32 25 31 26 33 27 10 29 11 30 16 31 12 32 15 33
REMARK SMILES IDX 13 34 14 35 36 36 37 37 38 38 39 39 2 40 1 41
REMARK H PARENT 31 28
ROOT
ATOM      1  C   UNL     1     -20.725   9.942 -16.883  1.00  0.00    +0.060 A 
ATOM      2  C   UNL     1     -20.456  11.223 -17.367  1.00  0.00    +0.134 A 
ATOM      3  C   UNL     1     -20.156   8.830 -17.503  1.00  0.00    +0.019 A 
ATOM      4  C   UNL     1     -19.619  11.390 -18.469  1.00  0.00    +0.093 A 
ATOM      5  C   UNL     1     -19.319   8.997 -18.606  1.00  0.00    +0.047 A 
ATOM      6  C   UNL     1     -19.051  10.277 -19.090  1.00  0.00    +0.122 A 
ENDROOT
BRANCH   1   7
ATOM      7  C   UNL     1     -21.601   9.744 -15.724  1.00  0.00    +0.144 C 
ATOM      8  C   UNL     1     -23.554   9.648 -14.524  1.00  0.00    +0.153 C 
ATOM      9  N   UNL     1     -22.993   9.644 -15.871  1.00  0.00    -0.268 N 
ATOM     10  C   UNL     1     -22.314   9.317 -13.663  1.00  0.00    +0.165 C 
ATOM     11  N   UNL     1     -21.138   9.671 -14.512  1.00  0.00    -0.257 NA
BRANCH   8  12
ATOM     12  C   UNL     1     -24.245  10.970 -14.215  1.00  0.00    -0.022 A 
ATOM     13  C   UNL     1     -25.509  13.392 -13.648  1.00  0.00    +0.041 A 
ATOM     14  C   UNL     1     -24.362  13.372 -14.441  1.00  0.00    +0.021 A 
ATOM     15  C   UNL     1     -26.023  12.200 -13.137  1.00  0.00    +0.021 A 
ATOM     16  C   UNL     1     -23.730  12.162 -14.725  1.00  0.00    +0.007 A 
ATOM     17  C   UNL     1     -25.392  10.989 -13.421  1.00  0.00    +0.007 A 
ATOM     18 Cl   UNL     1     -26.288  14.885 -13.298  1.00  0.00    -0.084 Cl
ENDBRANCH   8  12
BRANCH   9  19
ATOM     19  C   UNL     1     -23.768   9.779 -17.038  1.00  0.00    +0.326 C 
ATOM     20  O   UNL     1     -23.900  10.876 -17.592  1.00  0.00    -0.248 OA
BRANCH  19  21
ATOM     21  N   UNL     1     -24.441   8.626 -17.466  1.00  0.00    -0.313 N 
ATOM     22  C   UNL     1     -23.685   7.506 -18.009  1.00  0.00    +0.143 C 
ATOM     23  C   UNL     1     -25.842   8.332 -17.175  1.00  0.00    +0.221 C 
ATOM     24  C   UNL     1     -23.668   6.404 -16.973  1.00  0.00    +0.137 C 
ATOM     25  C   UNL     1     -26.054   6.987 -16.492  1.00  0.00    +0.239 C 
ATOM     26  N   UNL     1     -25.011   6.086 -16.526  1.00  0.00    -0.353 N 
ATOM     27  O   UNL     1     -27.155   6.696 -16.020  1.00  0.00    -0.273 OA
ATOM     28  H   UNL     1     -25.161   5.178 -16.097  1.00  0.00    +0.163 HD
ENDBRANCH  19  21
ENDBRANCH   9  19
BRANCH  10  29
ATOM     29  C   UNL     1     -22.291   9.880 -12.261  1.00  0.00    -0.021 A 
ATOM     30  C   UNL     1     -23.046   9.276 -11.255  1.00  0.00    +0.007 A 
ATOM     31  C   UNL     1     -21.515  11.002 -11.973  1.00  0.00    +0.007 A 
ATOM     32  C   UNL     1     -23.025   9.795  -9.961  1.00  0.00    +0.021 A 
ATOM     33  C   UNL     1     -21.494  11.521 -10.677  1.00  0.00    +0.021 A 
ATOM     34  C   UNL     1     -22.249  10.917  -9.671  1.00  0.00    +0.041 A 
ATOM     35 Cl   UNL     1     -22.223  11.558  -8.075  1.00  0.00    -0.084 Cl
ENDBRANCH  10  29
ENDBRANCH   1   7
BRANCH   2  36
ATOM     36  O   UNL     1     -21.002  12.323 -16.775  1.00  0.00    -0.490 OA
BRANCH  36  37
ATOM     37  C   UNL     1     -21.119  13.497 -17.575  1.00  0.00    +0.167 C 
ATOM     38  C   UNL     1     -21.542  14.663 -16.694  1.00  0.00    +0.052 C 
ATOM     39  C   UNL     1     -22.116  13.242 -18.696  1.00  0.00    +0.052 C 
ENDBRANCH  36  37
ENDBRANCH   2  36
BRANCH   6  40
ATOM     40  O   UNL     1     -18.234  10.441 -20.166  1.00  0.00    -0.497 OA
ATOM     41  C   UNL     1     -18.181   9.374 -21.111  1.00  0.00    +0.278 C 
ENDBRANCH   6  40
TORSDOF 8
ENDMDL
