MODEL 1
REMARK VINA RESULT:   -11.373      0.000      0.000
REMARK INTER + INTRA:         -13.048
REMARK INTER:                 -12.703
REMARK INTRA:                  -0.346
REMARK UNBOUND:                -0.346
REMARK SMILES CN[C@@H]1C[C@H]2O[C@@](C)([C@@H]1OC)n1c3ccccc3c3c4c(c5c6ccccc6n2c5c31)C(=O)NC4
REMARK SMILES IDX 6 1 33 2 12 3 29 4 34 5 7 6 9 7 5 8 3 9 4 10 31 11 30 12
REMARK SMILES IDX 19 13 22 14 13 15 8 16 28 17 18 18 20 19 21 20 23 21 35 22
REMARK SMILES IDX 14 23 32 24 17 25 27 26 24 27 15 28 16 29 26 30 25 31 10 33
REMARK SMILES IDX 11 34 2 35 1 36
REMARK H PARENT 34 32 2 37
ROOT
ATOM      1  O   UNL     1      13.256  68.726  18.817  1.00  0.00    -0.329 OA
ATOM      2  O   UNL     1      16.960  68.855  12.449  1.00  0.00    -0.269 OA
ATOM      3  N   UNL     1      12.246  69.879  17.023  1.00  0.00    -0.307 N 
ATOM      4  N   UNL     1      15.137  69.308  17.595  1.00  0.00    -0.312 N 
ATOM      5  N   UNL     1      14.846  69.347  11.574  1.00  0.00    -0.348 N 
ATOM      6  C   UNL     1      12.196  69.619  18.464  1.00  0.00    +0.173 C 
ATOM      7  C   UNL     1      12.238  70.877  19.377  1.00  0.00    +0.188 C 
ATOM      8  C   UNL     1      14.548  69.279  18.907  1.00  0.00    +0.224 C 
ATOM      9  C   UNL     1      13.587  71.604  19.409  1.00  0.00    +0.091 C 
ATOM     10  C   UNL     1      14.671  70.577  19.711  1.00  0.00    +0.077 C 
ATOM     11  C   UNL     1      13.227  69.660  16.075  1.00  0.00    +0.077 A 
ATOM     12  C   UNL     1      14.599  69.380  16.344  1.00  0.00    +0.077 A 
ATOM     13  C   UNL     1      12.921  69.771  14.665  1.00  0.00    +0.016 A 
ATOM     14  C   UNL     1      15.451  69.220  15.178  1.00  0.00    +0.023 A 
ATOM     15  C   UNL     1      11.171  70.279  16.199  1.00  0.00    +0.052 A 
ATOM     16  C   UNL     1      10.964  68.753  18.829  1.00  0.00    +0.071 C 
ATOM     17  C   UNL     1      16.489  69.099  17.321  1.00  0.00    +0.052 A 
ATOM     18  C   UNL     1      11.535  70.177  14.821  1.00  0.00    +0.008 A 
ATOM     19  C   UNL     1      13.742  69.572  13.558  1.00  0.00    -0.005 A 
ATOM     20  C   UNL     1      15.064  69.275  13.843  1.00  0.00    +0.055 A 
ATOM     21  C   UNL     1      16.707  69.028  15.914  1.00  0.00    +0.008 A 
ATOM     22  C   UNL     1      13.524  69.646  12.083  1.00  0.00    +0.153 C 
ATOM     23  C   UNL     1       9.870  70.721  16.526  1.00  0.00    +0.027 A 
ATOM     24  C   UNL     1      15.782  69.124  12.580  1.00  0.00    +0.252 C 
ATOM     25  C   UNL     1      10.565  70.497  13.834  1.00  0.00    +0.011 A 
ATOM     26  C   UNL     1      17.561  68.954  18.229  1.00  0.00    +0.027 A 
ATOM     27  C   UNL     1      18.038  68.810  15.474  1.00  0.00    +0.011 A 
ATOM     28  C   UNL     1       8.945  71.031  15.524  1.00  0.00    +0.002 A 
ATOM     29  C   UNL     1       9.285  70.915  14.190  1.00  0.00    +0.001 A 
ATOM     30  C   UNL     1      18.851  68.740  17.745  1.00  0.00    +0.002 A 
ATOM     31  C   UNL     1      19.088  68.668  16.384  1.00  0.00    +0.001 A 
ATOM     32  H   UNL     1      15.070  69.306  10.585  1.00  0.00    +0.164 HD
ENDROOT
BRANCH   7  33
ATOM     33  O   UNL     1      11.208  71.818  19.113  1.00  0.00    -0.375 OA
ATOM     34  C   UNL     1      10.502  72.167  20.297  1.00  0.00    +0.195 C 
ENDBRANCH   7  33
BRANCH   9  35
ATOM     35  N   UNL     1      13.868  72.376  18.200  1.00  0.00    -0.314 NA
ATOM     36  C   UNL     1      15.280  72.720  18.124  1.00  0.00    +0.101 C 
ATOM     37  H   UNL     1      13.311  73.230  18.208  1.00  0.00    +0.122 HD
ENDBRANCH   9  35
TORSDOF 2
ENDMDL
MODEL 2
REMARK VINA RESULT:   -10.156      1.958      5.431
REMARK INTER + INTRA:         -11.689
REMARK INTER:                 -11.489
REMARK INTRA:                  -0.200
REMARK UNBOUND:                -0.346
REMARK SMILES CN[C@@H]1C[C@H]2O[C@@](C)([C@@H]1OC)n1c3ccccc3c3c4c(c5c6ccccc6n2c5c31)C(=O)NC4
REMARK SMILES IDX 6 1 33 2 12 3 29 4 34 5 7 6 9 7 5 8 3 9 4 10 31 11 30 12
REMARK SMILES IDX 19 13 22 14 13 15 8 16 28 17 18 18 20 19 21 20 23 21 35 22
REMARK SMILES IDX 14 23 32 24 17 25 27 26 24 27 15 28 16 29 26 30 25 31 10 33
REMARK SMILES IDX 11 34 2 35 1 36
REMARK H PARENT 34 32 2 37
ROOT
ATOM      1  O   UNL     1      10.981  72.957  17.782  1.00  0.00    -0.329 OA
ATOM      2  O   UNL     1      15.261  68.491  13.779  1.00  0.00    -0.269 OA
ATOM      3  N   UNL     1      13.044  72.326  18.737  1.00  0.00    -0.307 N 
ATOM      4  N   UNL     1      11.327  70.934  16.706  1.00  0.00    -0.312 N 
ATOM      5  N   UNL     1      16.934  69.322  15.188  1.00  0.00    -0.348 N 
ATOM      6  C   UNL     1      11.749  72.962  18.988  1.00  0.00    +0.173 C 
ATOM      7  C   UNL     1      10.915  72.351  20.149  1.00  0.00    +0.188 C 
ATOM      8  C   UNL     1      10.374  71.739  17.421  1.00  0.00    +0.224 C 
ATOM      9  C   UNL     1      10.338  70.960  19.865  1.00  0.00    +0.091 C 
ATOM     10  C   UNL     1       9.605  71.015  18.531  1.00  0.00    +0.077 C 
ATOM     11  C   UNL     1      13.502  71.532  17.701  1.00  0.00    +0.077 A 
ATOM     12  C   UNL     1      12.689  70.878  16.730  1.00  0.00    +0.077 A 
ATOM     13  C   UNL     1      14.914  71.246  17.567  1.00  0.00    +0.016 A 
ATOM     14  C   UNL     1      13.399  70.068  15.755  1.00  0.00    +0.023 A 
ATOM     15  C   UNL     1      14.243  72.535  19.454  1.00  0.00    +0.052 A 
ATOM     16  C   UNL     1      11.914  74.486  19.212  1.00  0.00    +0.071 C 
ATOM     17  C   UNL     1      11.017  70.085  15.642  1.00  0.00    +0.052 A 
ATOM     18  C   UNL     1      15.348  71.951  18.761  1.00  0.00    +0.008 A 
ATOM     19  C   UNL     1      15.583  70.501  16.599  1.00  0.00    -0.005 A 
ATOM     20  C   UNL     1      14.775  69.895  15.651  1.00  0.00    +0.055 A 
ATOM     21  C   UNL     1      12.210  69.569  15.054  1.00  0.00    +0.008 A 
ATOM     22  C   UNL     1      17.017  70.161  16.365  1.00  0.00    +0.153 C 
ATOM     23  C   UNL     1      14.485  73.209  20.672  1.00  0.00    +0.027 A 
ATOM     24  C   UNL     1      15.629  69.140  14.737  1.00  0.00    +0.252 C 
ATOM     25  C   UNL     1      16.650  72.096  19.309  1.00  0.00    +0.011 A 
ATOM     26  C   UNL     1       9.747  69.730  15.138  1.00  0.00    +0.027 A 
ATOM     27  C   UNL     1      12.060  68.690  13.950  1.00  0.00    +0.011 A 
ATOM     28  C   UNL     1      15.783  73.324  21.181  1.00  0.00    +0.002 A 
ATOM     29  C   UNL     1      16.857  72.779  20.505  1.00  0.00    +0.001 A 
ATOM     30  C   UNL     1       9.654  68.863  14.050  1.00  0.00    +0.002 A 
ATOM     31  C   UNL     1      10.797  68.348  13.461  1.00  0.00    +0.001 A 
ATOM     32  H   UNL     1      17.742  68.907  14.736  1.00  0.00    +0.164 HD
ENDROOT
BRANCH   7  33
ATOM     33  O   UNL     1      11.590  72.330  21.398  1.00  0.00    -0.375 OA
ATOM     34  C   UNL     1      10.715  72.654  22.471  1.00  0.00    +0.195 C 
ENDBRANCH   7  33
BRANCH   9  35
ATOM     35  N   UNL     1      11.332  69.890  19.914  1.00  0.00    -0.314 NA
ATOM     36  C   UNL     1      10.900  68.748  19.123  1.00  0.00    +0.101 C 
ATOM     37  H   UNL     1      11.469  69.600  20.882  1.00  0.00    +0.122 HD
ENDBRANCH   9  35
TORSDOF 2
ENDMDL
MODEL 3
REMARK VINA RESULT:    -9.770      2.478      5.410
REMARK INTER + INTRA:         -11.258
REMARK INTER:                 -11.138
REMARK INTRA:                  -0.120
REMARK UNBOUND:                -0.346
REMARK SMILES CN[C@@H]1C[C@H]2O[C@@](C)([C@@H]1OC)n1c3ccccc3c3c4c(c5c6ccccc6n2c5c31)C(=O)NC4
REMARK SMILES IDX 6 1 33 2 12 3 29 4 34 5 7 6 9 7 5 8 3 9 4 10 31 11 30 12
REMARK SMILES IDX 19 13 22 14 13 15 8 16 28 17 18 18 20 19 21 20 23 21 35 22
REMARK SMILES IDX 14 23 32 24 17 25 27 26 24 27 15 28 16 29 26 30 25 31 10 33
REMARK SMILES IDX 11 34 2 35 1 36
REMARK H PARENT 34 32 2 37
ROOT
ATOM      1  O   UNL     1      12.943  71.891  16.180  1.00  0.00    -0.329 OA
ATOM      2  O   UNL     1      19.627  71.577  19.265  1.00  0.00    -0.269 OA
ATOM      3  N   UNL     1      13.043  72.120  18.526  1.00  0.00    -0.307 N 
ATOM      4  N   UNL     1      14.904  70.736  16.620  1.00  0.00    -0.312 N 
ATOM      5  N   UNL     1      18.537  72.667  21.025  1.00  0.00    -0.348 N 
ATOM      6  C   UNL     1      12.160  71.918  17.375  1.00  0.00    +0.173 C 
ATOM      7  C   UNL     1      11.249  70.659  17.439  1.00  0.00    +0.188 C 
ATOM      8  C   UNL     1      13.652  70.703  15.913  1.00  0.00    +0.224 C 
ATOM      9  C   UNL     1      11.985  69.324  17.290  1.00  0.00    +0.091 C 
ATOM     10  C   UNL     1      12.857  69.401  16.043  1.00  0.00    +0.077 C 
ATOM     11  C   UNL     1      14.412  72.010  18.674  1.00  0.00    +0.077 A 
ATOM     12  C   UNL     1      15.300  71.361  17.765  1.00  0.00    +0.077 A 
ATOM     13  C   UNL     1      15.065  72.520  19.860  1.00  0.00    +0.016 A 
ATOM     14  C   UNL     1      16.699  71.345  18.154  1.00  0.00    +0.023 A 
ATOM     15  C   UNL     1      12.689  72.673  19.776  1.00  0.00    +0.052 A 
ATOM     16  C   UNL     1      11.291  73.175  17.115  1.00  0.00    +0.071 C 
ATOM     17  C   UNL     1      16.105  70.206  16.145  1.00  0.00    +0.052 A 
ATOM     18  C   UNL     1      13.860  72.954  20.546  1.00  0.00    +0.008 A 
ATOM     19  C   UNL     1      16.416  72.534  20.197  1.00  0.00    -0.005 A 
ATOM     20  C   UNL     1      17.262  71.921  19.288  1.00  0.00    +0.055 A 
ATOM     21  C   UNL     1      17.181  70.556  17.013  1.00  0.00    +0.008 A 
ATOM     22  C   UNL     1      17.183  73.041  21.373  1.00  0.00    +0.153 C 
ATOM     23  C   UNL     1      11.425  72.980  20.327  1.00  0.00    +0.027 A 
ATOM     24  C   UNL     1      18.626  72.003  19.805  1.00  0.00    +0.252 C 
ATOM     25  C   UNL     1      13.708  73.558  21.823  1.00  0.00    +0.011 A 
ATOM     26  C   UNL     1      16.330  69.435  14.984  1.00  0.00    +0.027 A 
ATOM     27  C   UNL     1      18.475  70.094  16.660  1.00  0.00    +0.011 A 
ATOM     28  C   UNL     1      11.318  73.569  21.591  1.00  0.00    +0.002 A 
ATOM     29  C   UNL     1      12.447  73.862  22.331  1.00  0.00    +0.001 A 
ATOM     30  C   UNL     1      17.622  69.007  14.681  1.00  0.00    +0.002 A 
ATOM     31  C   UNL     1      18.683  69.332  15.507  1.00  0.00    +0.001 A 
ATOM     32  H   UNL     1      19.342  72.866  21.611  1.00  0.00    +0.164 HD
ENDROOT
BRANCH   7  33
ATOM     33  O   UNL     1      10.415  70.606  18.587  1.00  0.00    -0.375 OA
ATOM     34  C   UNL     1       9.205  69.908  18.323  1.00  0.00    +0.195 C 
ENDBRANCH   7  33
BRANCH   9  35
ATOM     35  N   UNL     1      12.741  68.933  18.478  1.00  0.00    -0.314 NA
ATOM     36  C   UNL     1      13.853  68.066  18.121  1.00  0.00    +0.101 C 
ATOM     37  H   UNL     1      12.123  68.443  19.125  1.00  0.00    +0.122 HD
ENDBRANCH   9  35
TORSDOF 2
ENDMDL
MODEL 4
REMARK VINA RESULT:    -9.572      1.836      5.590
REMARK INTER + INTRA:         -11.037
REMARK INTER:                 -10.732
REMARK INTRA:                  -0.306
REMARK UNBOUND:                -0.346
REMARK SMILES CN[C@@H]1C[C@H]2O[C@@](C)([C@@H]1OC)n1c3ccccc3c3c4c(c5c6ccccc6n2c5c31)C(=O)NC4
REMARK SMILES IDX 6 1 33 2 12 3 29 4 34 5 7 6 9 7 5 8 3 9 4 10 31 11 30 12
REMARK SMILES IDX 19 13 22 14 13 15 8 16 28 17 18 18 20 19 21 20 23 21 35 22
REMARK SMILES IDX 14 23 32 24 17 25 27 26 24 27 15 28 16 29 26 30 25 31 10 33
REMARK SMILES IDX 11 34 2 35 1 36
REMARK H PARENT 34 32 2 37
ROOT
ATOM      1  O   UNL     1      13.502  73.083  18.656  1.00  0.00    -0.329 OA
ATOM      2  O   UNL     1      14.137  68.932  12.602  1.00  0.00    -0.269 OA
ATOM      3  N   UNL     1      15.209  71.454  18.658  1.00  0.00    -0.307 N 
ATOM      4  N   UNL     1      12.608  71.552  17.163  1.00  0.00    -0.312 N 
ATOM      5  N   UNL     1      16.291  68.568  13.440  1.00  0.00    -0.348 N 
ATOM      6  C   UNL     1      14.455  72.405  19.478  1.00  0.00    +0.173 C 
ATOM      7  C   UNL     1      13.744  71.803  20.724  1.00  0.00    +0.188 C 
ATOM      8  C   UNL     1      12.337  72.370  18.315  1.00  0.00    +0.224 C 
ATOM      9  C   UNL     1      12.545  70.904  20.409  1.00  0.00    +0.091 C 
ATOM     10  C   UNL     1      11.618  71.662  19.468  1.00  0.00    +0.077 C 
ATOM     11  C   UNL     1      14.984  70.935  17.397  1.00  0.00    +0.077 A 
ATOM     12  C   UNL     1      13.752  70.989  16.681  1.00  0.00    +0.077 A 
ATOM     13  C   UNL     1      16.027  70.206  16.708  1.00  0.00    +0.016 A 
ATOM     14  C   UNL     1      13.750  70.342  15.380  1.00  0.00    +0.023 A 
ATOM     15  C   UNL     1      16.504  70.954  18.919  1.00  0.00    +0.052 A 
ATOM     16  C   UNL     1      15.349  73.593  19.913  1.00  0.00    +0.071 C 
ATOM     17  C   UNL     1      11.695  71.280  16.143  1.00  0.00    +0.052 A 
ATOM     18  C   UNL     1      17.011  70.264  17.775  1.00  0.00    +0.008 A 
ATOM     19  C   UNL     1      16.021  69.629  15.441  1.00  0.00    -0.005 A 
ATOM     20  C   UNL     1      14.822  69.715  14.753  1.00  0.00    +0.055 A 
ATOM     21  C   UNL     1      12.334  70.582  15.076  1.00  0.00    +0.008 A 
ATOM     22  C   UNL     1      17.034  68.877  14.643  1.00  0.00    +0.153 C 
ATOM     23  C   UNL     1      17.317  71.048  20.071  1.00  0.00    +0.027 A 
ATOM     24  C   UNL     1      14.983  69.043  13.466  1.00  0.00    +0.252 C 
ATOM     25  C   UNL     1      18.325  69.725  17.831  1.00  0.00    +0.011 A 
ATOM     26  C   UNL     1      10.324  71.610  16.076  1.00  0.00    +0.027 A 
ATOM     27  C   UNL     1      11.534  70.238  13.956  1.00  0.00    +0.011 A 
ATOM     28  C   UNL     1      18.603  70.499  20.086  1.00  0.00    +0.002 A 
ATOM     29  C   UNL     1      19.106  69.848  18.976  1.00  0.00    +0.001 A 
ATOM     30  C   UNL     1       9.582  71.249  14.952  1.00  0.00    +0.002 A 
ATOM     31  C   UNL     1      10.179  70.572  13.903  1.00  0.00    +0.001 A 
ATOM     32  H   UNL     1      16.682  68.055  12.656  1.00  0.00    +0.164 HD
ENDROOT
BRANCH   7  33
ATOM     33  O   UNL     1      14.616  71.123  21.615  1.00  0.00    -0.375 OA
ATOM     34  C   UNL     1      14.333  71.443  22.971  1.00  0.00    +0.195 C 
ENDBRANCH   7  33
BRANCH   9  35
ATOM     35  N   UNL     1      12.916  69.589  19.889  1.00  0.00    -0.314 NA
ATOM     36  C   UNL     1      11.795  68.973  19.196  1.00  0.00    +0.101 C 
ATOM     37  H   UNL     1      13.207  68.990  20.662  1.00  0.00    +0.122 HD
ENDBRANCH   9  35
TORSDOF 2
ENDMDL
MODEL 5
REMARK VINA RESULT:    -9.473      1.966      2.926
REMARK INTER + INTRA:         -10.926
REMARK INTER:                 -10.601
REMARK INTRA:                  -0.325
REMARK UNBOUND:                -0.346
REMARK SMILES CN[C@@H]1C[C@H]2O[C@@](C)([C@@H]1OC)n1c3ccccc3c3c4c(c5c6ccccc6n2c5c31)C(=O)NC4
REMARK SMILES IDX 6 1 33 2 12 3 29 4 34 5 7 6 9 7 5 8 3 9 4 10 31 11 30 12
REMARK SMILES IDX 19 13 22 14 13 15 8 16 28 17 18 18 20 19 21 20 23 21 35 22
REMARK SMILES IDX 14 23 32 24 17 25 27 26 24 27 15 28 16 29 26 30 25 31 10 33
REMARK SMILES IDX 11 34 2 35 1 36
REMARK H PARENT 34 32 2 37
ROOT
ATOM      1  O   UNL     1      13.384  69.609  20.246  1.00  0.00    -0.329 OA
ATOM      2  O   UNL     1      19.701  69.025  16.498  1.00  0.00    -0.269 OA
ATOM      3  N   UNL     1      13.338  70.258  17.978  1.00  0.00    -0.307 N 
ATOM      4  N   UNL     1      15.605  70.196  19.943  1.00  0.00    -0.312 N 
ATOM      5  N   UNL     1      18.262  69.057  14.653  1.00  0.00    -0.348 N 
ATOM      6  C   UNL     1      12.604  70.270  19.245  1.00  0.00    +0.173 C 
ATOM      7  C   UNL     1      12.167  71.672  19.756  1.00  0.00    +0.188 C 
ATOM      8  C   UNL     1      14.456  70.337  20.797  1.00  0.00    +0.224 C 
ATOM      9  C   UNL     1      13.312  72.565  20.244  1.00  0.00    +0.091 C 
ATOM     10  C   UNL     1      14.141  71.768  21.243  1.00  0.00    +0.077 C 
ATOM     11  C   UNL     1      14.660  69.996  17.674  1.00  0.00    +0.077 A 
ATOM     12  C   UNL     1      15.738  69.957  18.607  1.00  0.00    +0.077 A 
ATOM     13  C   UNL     1      15.072  69.797  16.301  1.00  0.00    +0.016 A 
ATOM     14  C   UNL     1      17.051  69.695  18.044  1.00  0.00    +0.023 A 
ATOM     15  C   UNL     1      12.785  70.347  16.680  1.00  0.00    +0.052 A 
ATOM     16  C   UNL     1      11.372  69.332  19.183  1.00  0.00    +0.071 C 
ATOM     17  C   UNL     1      16.926  70.120  20.387  1.00  0.00    +0.052 A 
ATOM     18  C   UNL     1      13.773  70.037  15.695  1.00  0.00    +0.008 A 
ATOM     19  C   UNL     1      16.330  69.503  15.783  1.00  0.00    -0.005 A 
ATOM     20  C   UNL     1      17.357  69.445  16.711  1.00  0.00    +0.055 A 
ATOM     21  C   UNL     1      17.799  69.815  19.302  1.00  0.00    +0.008 A 
ATOM     22  C   UNL     1      16.851  69.268  14.404  1.00  0.00    +0.153 C 
ATOM     23  C   UNL     1      11.477  70.666  16.253  1.00  0.00    +0.027 A 
ATOM     24  C   UNL     1      18.600  69.155  16.000  1.00  0.00    +0.252 C 
ATOM     25  C   UNL     1      13.393  70.032  14.327  1.00  0.00    +0.011 A 
ATOM     26  C   UNL     1      17.428  70.293  21.696  1.00  0.00    +0.027 A 
ATOM     27  C   UNL     1      19.182  69.697  19.595  1.00  0.00    +0.011 A 
ATOM     28  C   UNL     1      11.145  70.655  14.894  1.00  0.00    +0.002 A 
ATOM     29  C   UNL     1      12.091  70.336  13.939  1.00  0.00    +0.001 A 
ATOM     30  C   UNL     1      18.797  70.166  21.932  1.00  0.00    +0.002 A 
ATOM     31  C   UNL     1      19.665  69.871  20.895  1.00  0.00    +0.001 A 
ATOM     32  H   UNL     1      18.937  68.860  13.922  1.00  0.00    +0.164 HD
ENDROOT
BRANCH   7  33
ATOM     33  O   UNL     1      11.369  72.400  18.834  1.00  0.00    -0.375 OA
ATOM     34  C   UNL     1      10.312  73.091  19.489  1.00  0.00    +0.195 C 
ENDBRANCH   7  33
BRANCH   9  35
ATOM     35  N   UNL     1      14.123  73.125  19.165  1.00  0.00    -0.314 NA
ATOM     36  C   UNL     1      15.404  73.593  19.671  1.00  0.00    +0.101 C 
ATOM     37  H   UNL     1      13.623  73.904  18.737  1.00  0.00    +0.122 HD
ENDBRANCH   9  35
TORSDOF 2
ENDMDL
MODEL 6
REMARK VINA RESULT:    -9.317      1.854      3.080
REMARK INTER + INTRA:         -10.752
REMARK INTER:                 -10.600
REMARK INTRA:                  -0.152
REMARK UNBOUND:                -0.346
REMARK SMILES CN[C@@H]1C[C@H]2O[C@@](C)([C@@H]1OC)n1c3ccccc3c3c4c(c5c6ccccc6n2c5c31)C(=O)NC4
REMARK SMILES IDX 6 1 33 2 12 3 29 4 34 5 7 6 9 7 5 8 3 9 4 10 31 11 30 12
REMARK SMILES IDX 19 13 22 14 13 15 8 16 28 17 18 18 20 19 21 20 23 21 35 22
REMARK SMILES IDX 14 23 32 24 17 25 27 26 24 27 15 28 16 29 26 30 25 31 10 33
REMARK SMILES IDX 11 34 2 35 1 36
REMARK H PARENT 34 32 2 37
ROOT
ATOM      1  O   UNL     1      14.408  69.625  19.779  1.00  0.00    -0.329 OA
ATOM      2  O   UNL     1      12.426  68.475  12.776  1.00  0.00    -0.269 OA
ATOM      3  N   UNL     1      12.373  70.591  19.078  1.00  0.00    -0.307 N 
ATOM      4  N   UNL     1      14.820  69.845  17.509  1.00  0.00    -0.312 N 
ATOM      5  N   UNL     1      10.306  69.027  13.599  1.00  0.00    -0.348 N 
ATOM      6  C   UNL     1      13.380  70.550  20.140  1.00  0.00    +0.173 C 
ATOM      7  C   UNL     1      14.011  71.920  20.521  1.00  0.00    +0.188 C 
ATOM      8  C   UNL     1      15.350  70.063  18.828  1.00  0.00    +0.224 C 
ATOM      9  C   UNL     1      14.945  72.515  19.462  1.00  0.00    +0.091 C 
ATOM     10  C   UNL     1      15.959  71.448  19.071  1.00  0.00    +0.077 C 
ATOM     11  C   UNL     1      12.387  70.146  17.770  1.00  0.00    +0.077 A 
ATOM     12  C   UNL     1      13.548  69.782  17.025  1.00  0.00    +0.077 A 
ATOM     13  C   UNL     1      11.160  70.076  17.006  1.00  0.00    +0.016 A 
ATOM     14  C   UNL     1      13.313  69.374  15.651  1.00  0.00    +0.023 A 
ATOM     15  C   UNL     1      11.017  70.964  19.212  1.00  0.00    +0.052 A 
ATOM     16  C   UNL     1      12.818  69.866  21.412  1.00  0.00    +0.071 C 
ATOM     17  C   UNL     1      15.576  69.473  16.396  1.00  0.00    +0.052 A 
ATOM     18  C   UNL     1      10.288  70.627  18.029  1.00  0.00    +0.008 A 
ATOM     19  C   UNL     1      10.948  69.641  15.700  1.00  0.00    -0.005 A 
ATOM     20  C   UNL     1      12.086  69.269  15.005  1.00  0.00    +0.055 A 
ATOM     21  C   UNL     1      14.723  69.177  15.292  1.00  0.00    +0.008 A 
ATOM     22  C   UNL     1       9.737  69.519  14.836  1.00  0.00    +0.153 C 
ATOM     23  C   UNL     1      10.326  71.567  20.286  1.00  0.00    +0.027 A 
ATOM     24  C   UNL     1      11.688  68.869  13.657  1.00  0.00    +0.252 C 
ATOM     25  C   UNL     1       8.892  70.887  17.991  1.00  0.00    +0.011 A 
ATOM     26  C   UNL     1      16.979  69.364  16.278  1.00  0.00    +0.027 A 
ATOM     27  C   UNL     1      15.345  68.774  14.082  1.00  0.00    +0.011 A 
ATOM     28  C   UNL     1       8.952  71.812  20.207  1.00  0.00    +0.002 A 
ATOM     29  C   UNL     1       8.238  71.471  19.074  1.00  0.00    +0.001 A 
ATOM     30  C   UNL     1      17.540  68.963  15.067  1.00  0.00    +0.002 A 
ATOM     31  C   UNL     1      16.734  68.670  13.980  1.00  0.00    +0.001 A 
ATOM     32  H   UNL     1       9.756  68.821  12.771  1.00  0.00    +0.164 HD
ENDROOT
BRANCH   7  33
ATOM     33  O   UNL     1      13.066  72.903  20.915  1.00  0.00    -0.375 OA
ATOM     34  C   UNL     1      13.391  73.465  22.180  1.00  0.00    +0.195 C 
ENDBRANCH   7  33
BRANCH   9  35
ATOM     35  N   UNL     1      14.244  73.072  18.307  1.00  0.00    -0.314 NA
ATOM     36  C   UNL     1      15.101  73.067  17.132  1.00  0.00    +0.101 C 
ATOM     37  H   UNL     1      13.959  74.029  18.514  1.00  0.00    +0.122 HD
ENDBRANCH   9  35
TORSDOF 2
ENDMDL
MODEL 7
REMARK VINA RESULT:    -9.212      1.585      2.172
REMARK INTER + INTRA:         -10.635
REMARK INTER:                 -10.422
REMARK INTRA:                  -0.213
REMARK UNBOUND:                -0.346
REMARK SMILES CN[C@@H]1C[C@H]2O[C@@](C)([C@@H]1OC)n1c3ccccc3c3c4c(c5c6ccccc6n2c5c31)C(=O)NC4
REMARK SMILES IDX 6 1 33 2 12 3 29 4 34 5 7 6 9 7 5 8 3 9 4 10 31 11 30 12
REMARK SMILES IDX 19 13 22 14 13 15 8 16 28 17 18 18 20 19 21 20 23 21 35 22
REMARK SMILES IDX 14 23 32 24 17 25 27 26 24 27 15 28 16 29 26 30 25 31 10 33
REMARK SMILES IDX 11 34 2 35 1 36
REMARK H PARENT 34 32 2 37
ROOT
ATOM      1  O   UNL     1      14.831  69.708  20.653  1.00  0.00    -0.329 OA
ATOM      2  O   UNL     1      16.278  68.201  13.588  1.00  0.00    -0.269 OA
ATOM      3  N   UNL     1      13.316  70.554  19.055  1.00  0.00    -0.307 N 
ATOM      4  N   UNL     1      16.225  69.859  18.808  1.00  0.00    -0.312 N 
ATOM      5  N   UNL     1      14.004  68.689  13.329  1.00  0.00    -0.348 N 
ATOM      6  C   UNL     1      13.730  70.599  20.459  1.00  0.00    +0.173 C 
ATOM      7  C   UNL     1      14.087  72.009  21.009  1.00  0.00    +0.188 C 
ATOM      8  C   UNL     1      16.092  70.152  20.211  1.00  0.00    +0.224 C 
ATOM      9  C   UNL     1      15.386  72.605  20.457  1.00  0.00    +0.091 C 
ATOM     10  C   UNL     1      16.492  71.570  20.627  1.00  0.00    +0.077 C 
ATOM     11  C   UNL     1      13.934  70.059  17.922  1.00  0.00    +0.077 A 
ATOM     12  C   UNL     1      15.313  69.720  17.805  1.00  0.00    +0.077 A 
ATOM     13  C   UNL     1      13.190  69.906  16.690  1.00  0.00    +0.016 A 
ATOM     14  C   UNL     1      15.739  69.250  16.498  1.00  0.00    +0.023 A 
ATOM     15  C   UNL     1      12.039  70.869  18.539  1.00  0.00    +0.052 A 
ATOM     16  C   UNL     1      12.667  69.939  21.373  1.00  0.00    +0.071 C 
ATOM     17  C   UNL     1      17.413  69.479  18.181  1.00  0.00    +0.052 A 
ATOM     18  C   UNL     1      11.936  70.455  17.175  1.00  0.00    +0.008 A 
ATOM     19  C   UNL     1      13.605  69.412  15.456  1.00  0.00    -0.005 A 
ATOM     20  C   UNL     1      14.943  69.064  15.373  1.00  0.00    +0.055 A 
ATOM     21  C   UNL     1      17.162  69.103  16.828  1.00  0.00    +0.008 A 
ATOM     22  C   UNL     1      12.923  69.201  14.145  1.00  0.00    +0.153 C 
ATOM     23  C   UNL     1      10.922  71.482  19.149  1.00  0.00    +0.027 A 
ATOM     24  C   UNL     1      15.211  68.595  14.015  1.00  0.00    +0.252 C 
ATOM     25  C   UNL     1      10.704  70.650  16.495  1.00  0.00    +0.011 A 
ATOM     26  C   UNL     1      18.718  69.429  18.718  1.00  0.00    +0.027 A 
ATOM     27  C   UNL     1      18.275  68.683  16.056  1.00  0.00    +0.011 A 
ATOM     28  C   UNL     1       9.728  71.661  18.442  1.00  0.00    +0.002 A 
ATOM     29  C   UNL     1       9.617  71.244  17.129  1.00  0.00    +0.001 A 
ATOM     30  C   UNL     1      19.778  69.008  17.917  1.00  0.00    +0.002 A 
ATOM     31  C   UNL     1      19.561  68.637  16.601  1.00  0.00    +0.001 A 
ATOM     32  H   UNL     1      13.895  68.426  12.354  1.00  0.00    +0.164 HD
ENDROOT
BRANCH   7  33
ATOM     33  O   UNL     1      13.044  72.963  20.877  1.00  0.00    -0.375 OA
ATOM     34  C   UNL     1      12.758  73.600  22.116  1.00  0.00    +0.195 C 
ENDBRANCH   7  33
BRANCH   9  35
ATOM     35  N   UNL     1      15.276  73.085  19.081  1.00  0.00    -0.314 NA
ATOM     36  C   UNL     1      16.580  73.117  18.438  1.00  0.00    +0.101 C 
ATOM     37  H   UNL     1      14.875  74.023  19.082  1.00  0.00    +0.122 HD
ENDBRANCH   9  35
TORSDOF 2
ENDMDL
MODEL 8
REMARK VINA RESULT:    -9.209      2.421      5.643
REMARK INTER + INTRA:         -10.631
REMARK INTER:                 -10.440
REMARK INTRA:                  -0.191
REMARK UNBOUND:                -0.346
REMARK SMILES CN[C@@H]1C[C@H]2O[C@@](C)([C@@H]1OC)n1c3ccccc3c3c4c(c5c6ccccc6n2c5c31)C(=O)NC4
REMARK SMILES IDX 6 1 33 2 12 3 29 4 34 5 7 6 9 7 5 8 3 9 4 10 31 11 30 12
REMARK SMILES IDX 19 13 22 14 13 15 8 16 28 17 18 18 20 19 21 20 23 21 35 22
REMARK SMILES IDX 14 23 32 24 17 25 27 26 24 27 15 28 16 29 26 30 25 31 10 33
REMARK SMILES IDX 11 34 2 35 1 36
REMARK H PARENT 34 32 2 37
ROOT
ATOM      1  O   UNL     1      12.292  72.827  17.724  1.00  0.00    -0.329 OA
ATOM      2  O   UNL     1      19.004  69.947  16.751  1.00  0.00    -0.269 OA
ATOM      3  N   UNL     1      13.603  72.511  19.660  1.00  0.00    -0.307 N 
ATOM      4  N   UNL     1      13.653  71.090  17.016  1.00  0.00    -0.312 N 
ATOM      5  N   UNL     1      19.391  70.903  18.851  1.00  0.00    -0.348 N 
ATOM      6  C   UNL     1      12.265  72.823  19.154  1.00  0.00    +0.173 C 
ATOM      7  C   UNL     1      11.122  71.897  19.659  1.00  0.00    +0.188 C 
ATOM      8  C   UNL     1      12.299  71.572  17.086  1.00  0.00    +0.224 C 
ATOM      9  C   UNL     1      11.157  70.471  19.101  1.00  0.00    +0.091 C 
ATOM     10  C   UNL     1      11.266  70.557  17.584  1.00  0.00    +0.077 C 
ATOM     11  C   UNL     1      14.725  71.982  19.050  1.00  0.00    +0.077 A 
ATOM     12  C   UNL     1      14.752  71.314  17.790  1.00  0.00    +0.077 A 
ATOM     13  C   UNL     1      16.008  72.016  19.718  1.00  0.00    +0.016 A 
ATOM     14  C   UNL     1      16.049  70.813  17.370  1.00  0.00    +0.023 A 
ATOM     15  C   UNL     1      14.134  72.862  20.921  1.00  0.00    +0.052 A 
ATOM     16  C   UNL     1      11.897  74.302  19.433  1.00  0.00    +0.071 C 
ATOM     17  C   UNL     1      14.184  70.351  15.958  1.00  0.00    +0.052 A 
ATOM     18  C   UNL     1      15.542  72.622  20.954  1.00  0.00    +0.008 A 
ATOM     19  C   UNL     1      17.251  71.568  19.281  1.00  0.00    -0.005 A 
ATOM     20  C   UNL     1      17.259  70.946  18.044  1.00  0.00    +0.055 A 
ATOM     21  C   UNL     1      15.590  70.181  16.127  1.00  0.00    +0.008 A 
ATOM     22  C   UNL     1      18.619  71.568  19.879  1.00  0.00    +0.153 C 
ATOM     23  C   UNL     1      13.509  73.396  22.070  1.00  0.00    +0.027 A 
ATOM     24  C   UNL     1      18.626  70.519  17.754  1.00  0.00    +0.252 C 
ATOM     25  C   UNL     1      16.264  72.956  22.131  1.00  0.00    +0.011 A 
ATOM     26  C   UNL     1      13.518  69.814  14.835  1.00  0.00    +0.027 A 
ATOM     27  C   UNL     1      16.280  69.452  15.124  1.00  0.00    +0.011 A 
ATOM     28  C   UNL     1      14.255  73.706  23.212  1.00  0.00    +0.002 A 
ATOM     29  C   UNL     1      15.620  73.495  23.242  1.00  0.00    +0.001 A 
ATOM     30  C   UNL     1      14.242  69.107  13.876  1.00  0.00    +0.002 A 
ATOM     31  C   UNL     1      15.607  68.927  14.017  1.00  0.00    +0.001 A 
ATOM     32  H   UNL     1      20.389  70.731  18.922  1.00  0.00    +0.164 HD
ENDROOT
BRANCH   7  33
ATOM     33  O   UNL     1      11.004  71.843  21.072  1.00  0.00    -0.375 OA
ATOM     34  C   UNL     1       9.688  72.170  21.500  1.00  0.00    +0.195 C 
ENDBRANCH   7  33
BRANCH   9  35
ATOM     35  N   UNL     1      12.200  69.634  19.690  1.00  0.00    -0.314 NA
ATOM     36  C   UNL     1      12.562  68.550  18.790  1.00  0.00    +0.101 C 
ATOM     37  H   UNL     1      11.863  69.245  20.571  1.00  0.00    +0.122 HD
ENDBRANCH   9  35
TORSDOF 2
ENDMDL
MODEL 9
REMARK VINA RESULT:    -8.985      2.498      6.161
REMARK INTER + INTRA:         -10.381
REMARK INTER:                 -10.096
REMARK INTRA:                  -0.284
REMARK UNBOUND:                -0.346
REMARK SMILES CN[C@@H]1C[C@H]2O[C@@](C)([C@@H]1OC)n1c3ccccc3c3c4c(c5c6ccccc6n2c5c31)C(=O)NC4
REMARK SMILES IDX 6 1 33 2 12 3 29 4 34 5 7 6 9 7 5 8 3 9 4 10 31 11 30 12
REMARK SMILES IDX 19 13 22 14 13 15 8 16 28 17 18 18 20 19 21 20 23 21 35 22
REMARK SMILES IDX 14 23 32 24 17 25 27 26 24 27 15 28 16 29 26 30 25 31 10 33
REMARK SMILES IDX 11 34 2 35 1 36
REMARK H PARENT 34 32 2 37
ROOT
ATOM      1  O   UNL     1      16.457  72.781  19.620  1.00  0.00    -0.329 OA
ATOM      2  O   UNL     1      12.748  70.141  13.827  1.00  0.00    -0.269 OA
ATOM      3  N   UNL     1      17.146  70.685  18.783  1.00  0.00    -0.307 N 
ATOM      4  N   UNL     1      14.477  72.054  18.660  1.00  0.00    -0.312 N 
ATOM      5  N   UNL     1      14.676  68.841  13.564  1.00  0.00    -0.348 N 
ATOM      6  C   UNL     1      17.273  71.638  19.888  1.00  0.00    +0.173 C 
ATOM      7  C   UNL     1      16.948  71.075  21.301  1.00  0.00    +0.188 C 
ATOM      8  C   UNL     1      15.073  72.636  19.833  1.00  0.00    +0.224 C 
ATOM      9  C   UNL     1      15.467  70.769  21.546  1.00  0.00    +0.091 C 
ATOM     10  C   UNL     1      14.658  72.002  21.164  1.00  0.00    +0.077 C 
ATOM     11  C   UNL     1      16.232  70.578  17.751  1.00  0.00    +0.077 A 
ATOM     12  C   UNL     1      14.968  71.235  17.687  1.00  0.00    +0.077 A 
ATOM     13  C   UNL     1      16.486  69.692  16.636  1.00  0.00    +0.016 A 
ATOM     14  C   UNL     1      14.163  70.940  16.514  1.00  0.00    +0.023 A 
ATOM     15  C   UNL     1      18.087  69.703  18.400  1.00  0.00    +0.052 A 
ATOM     16  C   UNL     1      18.678  72.290  19.899  1.00  0.00    +0.071 C 
ATOM     17  C   UNL     1      13.209  72.366  18.169  1.00  0.00    +0.052 A 
ATOM     18  C   UNL     1      17.739  69.149  17.129  1.00  0.00    +0.008 A 
ATOM     19  C   UNL     1      15.721  69.454  15.497  1.00  0.00    -0.005 A 
ATOM     20  C   UNL     1      14.509  70.122  15.443  1.00  0.00    +0.055 A 
ATOM     21  C   UNL     1      12.996  71.740  16.905  1.00  0.00    +0.008 A 
ATOM     22  C   UNL     1      15.897  68.583  14.298  1.00  0.00    +0.153 C 
ATOM     23  C   UNL     1      19.251  69.237  19.049  1.00  0.00    +0.027 A 
ATOM     24  C   UNL     1      13.831  69.741  14.206  1.00  0.00    +0.252 C 
ATOM     25  C   UNL     1      18.595  68.171  16.555  1.00  0.00    +0.011 A 
ATOM     26  C   UNL     1      12.213  73.180  18.752  1.00  0.00    +0.027 A 
ATOM     27  C   UNL     1      11.748  71.969  16.270  1.00  0.00    +0.011 A 
ATOM     28  C   UNL     1      20.064  68.268  18.452  1.00  0.00    +0.002 A 
ATOM     29  C   UNL     1      19.745  67.743  17.214  1.00  0.00    +0.001 A 
ATOM     30  C   UNL     1      11.003  73.373  18.086  1.00  0.00    +0.002 A 
ATOM     31  C   UNL     1      10.772  72.776  16.859  1.00  0.00    +0.001 A 
ATOM     32  H   UNL     1      14.456  68.409  12.672  1.00  0.00    +0.164 HD
ENDROOT
BRANCH   7  33
ATOM     33  O   UNL     1      17.725  69.944  21.667  1.00  0.00    -0.375 OA
ATOM     34  C   UNL     1      18.305  70.103  22.955  1.00  0.00    +0.195 C 
ENDBRANCH   7  33
BRANCH   9  35
ATOM     35  N   UNL     1      14.997  69.560  20.872  1.00  0.00    -0.314 NA
ATOM     36  C   UNL     1      13.549  69.576  20.734  1.00  0.00    +0.101 C 
ATOM     37  H   UNL     1      15.277  68.742  21.412  1.00  0.00    +0.122 HD
ENDBRANCH   9  35
TORSDOF 2
ENDMDL
