REMARK SMILES CCCSc1ccc2nc(NC(=O)OC)[nH]c2c1
REMARK SMILES IDX 16 1 9 2 17 3 8 4 5 5 18 6 7 7 10 8 6 9 4 11 3 12 2 13 1 14
REMARK SMILES IDX 11 15 12 16 13 17 14 19 15 20
REMARK H PARENT 16 10 11 18
ROOT
ATOM      1  N   UNL     1       1.060   0.931  -1.097  1.00  0.00    -0.324 N 
ATOM      2  N   UNL     1       1.649  -0.548   0.432  1.00  0.00    -0.213 NA
ATOM      3  C   UNL     1      -0.105   0.312  -0.726  1.00  0.00    +0.068 A 
ATOM      4  C   UNL     1       0.295  -0.612   0.230  1.00  0.00    +0.091 A 
ATOM      5  C   UNL     1      -2.390  -0.353  -0.519  1.00  0.00    +0.009 A 
ATOM      6  C   UNL     1      -1.433   0.471  -1.133  1.00  0.00    +0.043 A 
ATOM      7  C   UNL     1      -0.665  -1.441   0.824  1.00  0.00    +0.032 A 
ATOM      8  C   UNL     1       2.094   0.386  -0.375  1.00  0.00    +0.210 A 
ATOM      9  C   UNL     1      -2.006  -1.304   0.436  1.00  0.00    +0.017 A 
ATOM     10  H   UNL     1       1.144   1.662  -1.785  1.00  0.00    +0.170 HD
ENDROOT
BRANCH   5  11
ATOM     11  S   UNL     1      -4.097  -0.180  -1.024  1.00  0.00    -0.126 SA
BRANCH  11  12
ATOM     12  C   UNL     1      -4.877   0.137   0.596  1.00  0.00    +0.075 C 
BRANCH  12  13
ATOM     13  C   UNL     1      -6.346   0.506   0.398  1.00  0.00    +0.008 C 
ATOM     14  C   UNL     1      -7.025   0.780   1.732  1.00  0.00    +0.005 C 
ENDBRANCH  12  13
ENDBRANCH  11  12
ENDBRANCH   5  11
BRANCH   8  15
ATOM     15  N   UNL     1       3.376   0.829  -0.551  1.00  0.00    -0.261 N 
ATOM     16  C   UNL     1       4.440   0.326   0.139  1.00  0.00    +0.413 C 
ATOM     17  O   UNL     1       4.464  -0.549   0.989  1.00  0.00    -0.224 OA
ATOM     18  H   UNL     1       3.590   1.557  -1.212  1.00  0.00    +0.176 HD
BRANCH  16  19
ATOM     19  O   UNL     1       5.553   0.991  -0.288  1.00  0.00    -0.453 OA
ATOM     20  C   UNL     1       6.760   0.569   0.351  1.00  0.00    +0.284 C 
ENDBRANCH  16  19
ENDBRANCH   8  15
TORSDOF 5
