REMARK  Name = 6333901
REMARK  19 active torsions:
REMARK  status: ('A' for Active; 'I' for Inactive)
REMARK    1  A    between atoms: P_3  and  C_13
REMARK    2  A    between atoms: P_3  and  C_14
REMARK    3  A    between atoms: P_3  and  C_15
REMARK    4  A    between atoms: O_5  and  C_16
REMARK    5  A    between atoms: O_5  and  C_25
REMARK    6  A    between atoms: O_6  and  C_17
REMARK    7  A    between atoms: O_6  and  C_26
REMARK    8  A    between atoms: O_7  and  C_19
REMARK    9  A    between atoms: O_7  and  C_27
REMARK   10  A    between atoms: O_8  and  C_24
REMARK   11  A    between atoms: O_8  and  C_31
REMARK   12  A    between atoms: C_13  and  C_21
REMARK   13  A    between atoms: C_14  and  C_22
REMARK   14  A    between atoms: C_15  and  C_23
REMARK   15  A    between atoms: C_20  and  C_24
REMARK   16  A    between atoms: C_25  and  C_28
REMARK   17  A    between atoms: C_26  and  C_29
REMARK   18  A    between atoms: C_27  and  C_30
REMARK   19  A    between atoms: C_31  and  C_32
REMARK                            x       y       z     vdW  Elec       q    Type
REMARK                         _______ _______ _______ _____ _____    ______ ____
ROOT
ATOM      1 AU   UNL     1       0.000   0.000   0.000  0.00  0.00    +0.000 Au
ENDROOT
TORSDOF 0
REMARK  Name = 6333901
REMARK  19 active torsions:
REMARK  status: ('A' for Active; 'I' for Inactive)
REMARK    1  A    between atoms: P_3  and  C_13
REMARK    2  A    between atoms: P_3  and  C_14
REMARK    3  A    between atoms: P_3  and  C_15
REMARK    4  A    between atoms: O_5  and  C_16
REMARK    5  A    between atoms: O_5  and  C_25
REMARK    6  A    between atoms: O_6  and  C_17
REMARK    7  A    between atoms: O_6  and  C_26
REMARK    8  A    between atoms: O_7  and  C_19
REMARK    9  A    between atoms: O_7  and  C_27
REMARK   10  A    between atoms: O_8  and  C_24
REMARK   11  A    between atoms: O_8  and  C_31
REMARK   12  A    between atoms: C_13  and  C_21
REMARK   13  A    between atoms: C_14  and  C_22
REMARK   14  A    between atoms: C_15  and  C_23
REMARK   15  A    between atoms: C_20  and  C_24
REMARK   16  A    between atoms: C_25  and  C_28
REMARK   17  A    between atoms: C_26  and  C_29
REMARK   18  A    between atoms: C_27  and  C_30
REMARK   19  A    between atoms: C_31  and  C_32
REMARK                            x       y       z     vdW  Elec       q    Type
REMARK                         _______ _______ _______ _____ _____    ______ ____
ROOT
ATOM      1  S   UNL     1       0.450   0.500  -3.633  0.00  0.00    +0.000 SA
ATOM      2  O   UNL     1      -0.779  -0.464  -1.496  0.00  0.00    +0.000 OA
ATOM      3  C   UNL     1       1.383   0.465  -1.090  0.00  0.00    +0.000 C 
ATOM      4  C   UNL     1       1.203  -0.318   0.194  0.00  0.00    +0.000 C 
ATOM      5  C   UNL     1       0.109   0.538  -1.901  0.00  0.00    +0.000 C 
ATOM      6  C   UNL     1      -0.148  -0.113   0.781  0.00  0.00    +0.000 C 
ATOM      7  C   UNL     1      -1.266   0.003  -0.251  0.00  0.00    +0.000 C 
ENDROOT
BRANCH   3   8
ATOM      8  O   UNL     1       1.826   1.789  -0.842  0.00  0.00    +0.000 OA
BRANCH   8  10
ATOM      9  O   UNL     1       3.707   1.613  -2.144  0.00  0.00    +0.000 OA
ATOM     10  C   UNL     1       2.980   2.321  -1.381  0.00  0.00    +0.000 C 
ATOM     11  C   UNL     1       3.346   3.739  -1.045  0.00  0.00    +0.000 C 
ENDBRANCH   8  10
ENDBRANCH   3   8
BRANCH   4  12
ATOM     12  O   UNL     1       1.631  -1.604  -0.047  0.00  0.00    +0.000 OA
BRANCH  12  14
ATOM     13  O   UNL     1       3.441  -1.432   1.334  0.00  0.00    +0.000 OA
ATOM     14  C   UNL     1       2.755  -2.127   0.541  0.00  0.00    +0.000 C 
ATOM     15  C   UNL     1       3.166  -3.522   0.241  0.00  0.00    +0.000 C 
ENDBRANCH  12  14
ENDBRANCH   4  12
BRANCH   6  16
ATOM     16  O   UNL     1      -0.444  -1.030   1.788  0.00  0.00    +0.000 OA
BRANCH  16  18
ATOM     17  O   UNL     1      -0.588   0.624   3.416  0.00  0.00    +0.000 OA
ATOM     18  C   UNL     1      -0.656  -0.597   3.098  0.00  0.00    +0.000 C 
ATOM     19  C   UNL     1      -0.975  -1.583   4.187  0.00  0.00    +0.000 C 
ENDBRANCH  16  18
ENDBRANCH   6  16
BRANCH   7  20
ATOM     20  C   UNL     1      -2.515  -0.682   0.164  0.00  0.00    +0.000 C 
BRANCH  20  21
ATOM     21  O   UNL     1      -3.506  -0.457  -0.813  0.00  0.00    +0.000 OA
BRANCH  21  23
ATOM     22  O   UNL     1      -3.677   1.844  -0.715  0.00  0.00    +0.000 OA
ATOM     23  C   UNL     1      -4.026   0.740  -1.201  0.00  0.00    +0.000 C 
ATOM     24  C   UNL     1      -5.077   0.731  -2.270  0.00  0.00    +0.000 C 
ENDBRANCH  21  23
ENDBRANCH  20  21
ENDBRANCH   7  20
TORSDOF 9
REMARK  Name = 6333901
REMARK  19 active torsions:
REMARK  status: ('A' for Active; 'I' for Inactive)
REMARK    1  A    between atoms: P_3  and  C_13
REMARK    2  A    between atoms: P_3  and  C_14
REMARK    3  A    between atoms: P_3  and  C_15
REMARK    4  A    between atoms: O_5  and  C_16
REMARK    5  A    between atoms: O_5  and  C_25
REMARK    6  A    between atoms: O_6  and  C_17
REMARK    7  A    between atoms: O_6  and  C_26
REMARK    8  A    between atoms: O_7  and  C_19
REMARK    9  A    between atoms: O_7  and  C_27
REMARK   10  A    between atoms: O_8  and  C_24
REMARK   11  A    between atoms: O_8  and  C_31
REMARK   12  A    between atoms: C_13  and  C_21
REMARK   13  A    between atoms: C_14  and  C_22
REMARK   14  A    between atoms: C_15  and  C_23
REMARK   15  A    between atoms: C_20  and  C_24
REMARK   16  A    between atoms: C_25  and  C_28
REMARK   17  A    between atoms: C_26  and  C_29
REMARK   18  A    between atoms: C_27  and  C_30
REMARK   19  A    between atoms: C_31  and  C_32
REMARK                            x       y       z     vdW  Elec       q    Type
REMARK                         _______ _______ _______ _____ _____    ______ ____
ROOT
ATOM      1  P   UNL     1       0.122  -0.234  -0.432  0.00  0.00    +0.000 P 
ATOM      2  H   UNL     1       0.324  -1.207  -1.431  0.00  0.00    +0.000 HD
ENDROOT
BRANCH   1   3
ATOM      3  C   UNL     1       1.653   0.239   0.394  0.00  0.00    +0.000 C 
ATOM      4  C   UNL     1       2.760  -0.775   0.181  0.00  0.00    +0.000 C 
ENDBRANCH   1   3
BRANCH   1   5
ATOM      5  C   UNL     1      -0.587   1.292  -1.152  0.00  0.00    +0.000 C 
ATOM      6  C   UNL     1      -0.799   2.254   0.002  0.00  0.00    +0.000 C 
ENDBRANCH   1   5
BRANCH   1   7
ATOM      7  C   UNL     1      -1.107  -0.842   0.771  0.00  0.00    +0.000 C 
ATOM      8  C   UNL     1      -1.971  -1.861   0.051  0.00  0.00    +0.000 C 
ENDBRANCH   1   7
TORSDOF 3
