REMARK SMILES CCN(CC)CCC[C@H](C)Nc1ccnc2cc(Cl)ccc12
REMARK SMILES IDX 8 1 9 2 10 3 11 4 12 6 18 7 17 8 20 9 16 10 21 11 15 12
REMARK SMILES IDX 22 13 14 14 13 15 19 16 7 17 6 18 3 19 2 20 1 21 4 22 5 23
REMARK H PARENT 11 5
ROOT
ATOM      1  C   UNL     1      -2.370  -1.659  -0.134  1.00  0.00    +0.026 C 
ENDROOT
BRANCH   1   2
ATOM      2  C   UNL     1      -1.261  -2.720  -0.280  1.00  0.00    +0.076 C 
ATOM      3  C   UNL     1      -1.542  -3.958   0.575  1.00  0.00    +0.031 C 
BRANCH   2   4
ATOM      4  N   UNL     1       0.061  -2.196   0.097  1.00  0.00    -0.382 N 
ATOM      5  H   UNL     1       0.116  -2.026   1.096  1.00  0.00    +0.160 HD
BRANCH   4   6
ATOM      6  C   UNL     1       0.706  -1.182  -0.637  1.00  0.00    +0.045 A 
ATOM      7  C   UNL     1       3.902   1.096   0.969  1.00  0.00    +0.043 A 
ATOM      8  C   UNL     1       3.440   1.308  -0.326  1.00  0.00    +0.049 A 
ATOM      9  C   UNL     1       3.335   0.109   1.760  1.00  0.00    +0.021 A 
ATOM     10  C   UNL     1       2.406   0.551  -0.856  1.00  0.00    +0.074 A 
ATOM     11  C   UNL     1       2.290  -0.659   1.247  1.00  0.00    +0.014 A 
ATOM     12  N   UNL     1       2.044   0.811  -2.118  1.00  0.00    -0.256 NA
ATOM     13  C   UNL     1       1.790  -0.450  -0.064  1.00  0.00    +0.023 A 
ATOM     14  C   UNL     1       1.068   0.059  -2.657  1.00  0.00    +0.114 A 
ATOM     15  C   UNL     1       0.396  -0.938  -1.976  1.00  0.00    +0.046 A 
ATOM     16 Cl   UNL     1       5.189   2.055   1.589  1.00  0.00    -0.084 Cl
ENDBRANCH   4   6
ENDBRANCH   2   4
ENDBRANCH   1   2
BRANCH   1  17
ATOM     17  C   UNL     1      -2.535  -1.078   1.279  1.00  0.00    +0.018 C 
BRANCH  17  18
ATOM     18  C   UNL     1      -3.553   0.076   1.335  1.00  0.00    +0.084 C 
BRANCH  18  19
ATOM     19  N   UNL     1      -3.288   1.174   0.385  1.00  0.00    -0.304 NA
BRANCH  19  20
ATOM     20  C   UNL     1      -2.071   1.925   0.754  1.00  0.00    +0.081 C 
ATOM     21  C   UNL     1      -1.495   2.707  -0.423  1.00  0.00    +0.021 C 
ENDBRANCH  19  20
BRANCH  19  22
ATOM     22  C   UNL     1      -4.451   2.078   0.287  1.00  0.00    +0.081 C 
ATOM     23  C   UNL     1      -5.596   1.471  -0.519  1.00  0.00    +0.021 C 
ENDBRANCH  19  22
ENDBRANCH  18  19
ENDBRANCH  17  18
ENDBRANCH   1  17
TORSDOF 8
