REMARK SMILES CCN(CC)C(=S)SSC(=S)N(CC)CC
REMARK SMILES IDX 8 1 9 2 10 3 11 4 12 5 13 6 14 7 15 8 16 9 6 10 7 11 3 12
REMARK SMILES IDX 2 13 1 14 4 15 5 16
REMARK H PARENT
ROOT
ATOM      1  S   UNL     1       0.458   1.462   1.237  1.00  0.00    -0.020 SA
ENDROOT
BRANCH   1   2
ATOM      2  S   UNL     1      -0.857   2.023  -0.258  1.00  0.00    -0.020 SA
BRANCH   2   3
ATOM      3  C   UNL     1      -1.411   0.451  -0.866  1.00  0.00    +0.147 C 
ATOM      4  S   UNL     1      -0.659  -0.162  -2.247  1.00  0.00    -0.052 S 
ATOM      5  N   UNL     1      -2.472  -0.172  -0.174  1.00  0.00    -0.357 N 
BRANCH   5   6
ATOM      6  C   UNL     1      -3.010  -1.479  -0.596  1.00  0.00    +0.114 C 
ATOM      7  C   UNL     1      -2.302  -2.631   0.103  1.00  0.00    +0.027 C 
ENDBRANCH   5   6
BRANCH   5   8
ATOM      8  C   UNL     1      -3.185   0.437   0.965  1.00  0.00    +0.114 C 
ATOM      9  C   UNL     1      -4.348   1.304   0.506  1.00  0.00    +0.027 C 
ENDBRANCH   5   8
ENDBRANCH   2   3
ENDBRANCH   1   2
BRANCH   1  10
ATOM     10  C   UNL     1       1.966   1.177   0.339  1.00  0.00    +0.147 C 
ATOM     11  S   UNL     1       2.795   2.514  -0.280  1.00  0.00    -0.052 S 
ATOM     12  N   UNL     1       2.410  -0.161   0.261  1.00  0.00    -0.357 N 
BRANCH  12  13
ATOM     13  C   UNL     1       3.665  -0.520  -0.424  1.00  0.00    +0.114 C 
ATOM     14  C   UNL     1       3.444  -0.832  -1.897  1.00  0.00    +0.027 C 
ENDBRANCH  12  13
BRANCH  12  15
ATOM     15  C   UNL     1       1.686  -1.305   0.843  1.00  0.00    +0.114 C 
ATOM     16  C   UNL     1       2.133  -1.593   2.268  1.00  0.00    +0.027 C 
ENDBRANCH  12  15
ENDBRANCH   1  10
TORSDOF 7
