REMARK SMILES COC(=O)Nc1nc2ccc(Sc3ccccc3)cc2[nH]1
REMARK SMILES IDX 21 1 7 2 20 3 8 4 19 5 11 6 6 7 9 8 10 9 12 11 13 12 14 13
REMARK SMILES IDX 18 14 15 15 17 16 16 17 5 18 3 19 4 20 2 22 1 23
REMARK H PARENT 21 10 5 21
ROOT
ATOM      1  N   UNL     1       1.395   0.589  -0.898  1.00  0.00    -0.324 N 
ATOM      2  N   UNL     1       2.385  -0.927   0.363  1.00  0.00    -0.213 NA
ATOM      3  C   UNL     1       0.415  -0.318  -0.588  1.00  0.00    +0.068 A 
ATOM      4  C   UNL     1       1.065  -1.258   0.201  1.00  0.00    +0.091 A 
ATOM      5  C   UNL     1      -0.940  -0.397  -0.920  1.00  0.00    +0.043 A 
ATOM      6  C   UNL     1      -1.657  -1.490  -0.405  1.00  0.00    +0.014 A 
ATOM      7  C   UNL     1       2.567   0.187  -0.304  1.00  0.00    +0.210 A 
ATOM      8  C   UNL     1       0.344  -2.351   0.698  1.00  0.00    +0.032 A 
ATOM      9  C   UNL     1      -1.019  -2.457   0.384  1.00  0.00    +0.018 A 
ATOM     10  H   UNL     1       1.274   1.414  -1.463  1.00  0.00    +0.170 HD
ENDROOT
BRANCH   6  11
ATOM     11  S   UNL     1      -3.397  -1.687  -0.771  1.00  0.00    -0.090 SA
BRANCH  11  12
ATOM     12  C   UNL     1      -4.074  -0.146  -0.177  1.00  0.00    +0.012 A 
ATOM     13  C   UNL     1      -3.868   0.283   1.139  1.00  0.00    +0.015 A 
ATOM     14  C   UNL     1      -4.849   0.638  -1.038  1.00  0.00    +0.015 A 
ATOM     15  C   UNL     1      -4.415   1.490   1.581  1.00  0.00    +0.001 A 
ATOM     16  C   UNL     1      -5.396   1.845  -0.595  1.00  0.00    +0.001 A 
ATOM     17  C   UNL     1      -5.176   2.271   0.714  1.00  0.00    +0.000 A 
ENDBRANCH  11  12
ENDBRANCH   6  11
BRANCH   7  18
ATOM     18  N   UNL     1       3.710   0.922  -0.454  1.00  0.00    -0.261 N 
ATOM     19  C   UNL     1       4.901   0.573   0.113  1.00  0.00    +0.413 C 
ATOM     20  O   UNL     1       5.168  -0.389   0.815  1.00  0.00    -0.224 OA
ATOM     21  H   UNL     1       3.720   1.768  -0.999  1.00  0.00    +0.176 HD
BRANCH  19  22
ATOM     22  O   UNL     1       5.816   1.521  -0.242  1.00  0.00    -0.453 OA
ATOM     23  C   UNL     1       7.125   1.288   0.282  1.00  0.00    +0.284 C 
ENDBRANCH  19  22
ENDBRANCH   7  18
TORSDOF 4
