REMARK SMILES CC[C@@H](C)n1ncn(-c2ccc(N3CCN(c4ccc(OC[C@H]5CO[C@](Cn6cncn6)(c6ccc(Cl)cc6Cl)O5)cc4)CC3)cc2)c1=O
REMARK SMILES IDX 17 1 18 2 43 3 20 4 19 5 42 6 21 7 22 8 23 9 26 10 41 11
REMARK SMILES IDX 25 12 24 13 33 14 39 15 38 16 34 17 36 18 35 19 40 20 37 21
REMARK SMILES IDX 27 22 28 23 32 24 29 25 31 26 30 27 16 28 15 29 44 30 14 31
REMARK SMILES IDX 45 32 13 33 12 34 11 35 46 36 10 37 47 38 9 39 8 40 48 41
REMARK SMILES IDX 7 42 49 43 5 44 6 45 3 46 4 47 2 48 1 49
REMARK H PARENT
ROOT
ATOM      1  C   UNL     1      -0.123  -0.535   0.766  1.00  0.00    +0.037 A 
ATOM      2  C   UNL     1      -0.828   0.516   1.376  1.00  0.00    +0.030 A 
ATOM      3  C   UNL     1      -0.902  -1.554   0.200  1.00  0.00    +0.030 A 
ATOM      4  C   UNL     1      -2.976  -0.467   0.841  1.00  0.00    +0.119 A 
ATOM      5  C   UNL     1      -2.231   0.556   1.416  1.00  0.00    +0.048 A 
ATOM      6  C   UNL     1      -2.303  -1.521   0.233  1.00  0.00    +0.048 A 
ENDROOT
BRANCH   4   7
ATOM      7  O   UNL     1      -4.338  -0.556   0.806  1.00  0.00    -0.491 OA
BRANCH   7   8
ATOM      8  C   UNL     1      -5.077   0.504   1.421  1.00  0.00    +0.264 C 
BRANCH   8   9
ATOM      9  C   UNL     1      -6.563   0.220   1.231  1.00  0.00    +0.185 C 
ATOM     10  C   UNL     1      -8.378   0.765  -0.048  1.00  0.00    +0.217 C 
ATOM     11  O   UNL     1      -6.972   0.468  -0.122  1.00  0.00    -0.335 OA
ATOM     12  O   UNL     1      -8.697   1.089   1.325  1.00  0.00    -0.341 OA
ATOM     13  C   UNL     1      -7.448   1.152   2.014  1.00  0.00    +0.200 C 
BRANCH  10  14
ATOM     14  C   UNL     1      -9.183  -0.476  -0.467  1.00  0.00    +0.032 A 
ATOM     15  C   UNL     1      -8.896  -1.233  -1.623  1.00  0.00    +0.051 A 
ATOM     16  C   UNL     1      -9.661  -2.357  -1.960  1.00  0.00    +0.041 A 
ATOM     17  C   UNL     1     -10.285  -0.888   0.318  1.00  0.00    +0.012 A 
ATOM     18  C   UNL     1     -10.729  -2.741  -1.157  1.00  0.00    +0.042 A 
ATOM     19  C   UNL     1     -11.047  -2.009  -0.021  1.00  0.00    +0.021 A 
ATOM     20 Cl   UNL     1      -7.618  -0.833  -2.720  1.00  0.00    -0.084 Cl
ATOM     21 Cl   UNL     1     -11.665  -4.120  -1.577  1.00  0.00    -0.084 Cl
ENDBRANCH  10  14
BRANCH  10  22
ATOM     22  C   UNL     1      -8.740   1.955  -0.959  1.00  0.00    +0.217 C 
BRANCH  22  23
ATOM     23  N   UNL     1      -7.941   3.132  -0.691  1.00  0.00    -0.247 N 
ATOM     24  N   UNL     1      -8.451   4.192  -0.034  1.00  0.00    -0.160 NA
ATOM     25  C   UNL     1      -6.657   3.373  -1.078  1.00  0.00    +0.219 A 
ATOM     26  C   UNL     1      -7.410   5.029  -0.036  1.00  0.00    +0.246 A 
ATOM     27  N   UNL     1      -6.287   4.559  -0.654  1.00  0.00    -0.224 NA
ENDBRANCH  22  23
ENDBRANCH  10  22
ENDBRANCH   8   9
ENDBRANCH   7   8
ENDBRANCH   4   7
BRANCH   1  28
ATOM     28  N   UNL     1       1.261  -0.562   0.739  1.00  0.00    -0.368 N 
ATOM     29  C   UNL     1       2.009  -1.796   0.447  1.00  0.00    +0.138 C 
ATOM     30  C   UNL     1       2.052   0.679   0.827  1.00  0.00    +0.138 C 
ATOM     31  C   UNL     1       3.452  -1.743   1.004  1.00  0.00    +0.138 C 
ATOM     32  C   UNL     1       3.395   0.578   0.064  1.00  0.00    +0.138 C 
ATOM     33  N   UNL     1       4.200  -0.573   0.509  1.00  0.00    -0.368 N 
BRANCH  33  34
ATOM     34  C   UNL     1       5.575  -0.603   0.363  1.00  0.00    +0.037 A 
ATOM     35  C   UNL     1       6.377  -1.492   1.088  1.00  0.00    +0.028 A 
ATOM     36  C   UNL     1       6.253   0.256  -0.509  1.00  0.00    +0.028 A 
ATOM     37  C   UNL     1       7.777  -1.525   0.950  1.00  0.00    +0.029 A 
ATOM     38  C   UNL     1       7.651   0.228  -0.655  1.00  0.00    +0.029 A 
ATOM     39  C   UNL     1       8.443  -0.663   0.073  1.00  0.00    +0.052 A 
BRANCH  39  40
ATOM     40  N   UNL     1       9.852  -0.696  -0.068  1.00  0.00    -0.250 N 
ATOM     41  C   UNL     1      10.648   0.106  -0.870  1.00  0.00    +0.350 C 
ATOM     42  C   UNL     1      10.723  -1.507   0.574  1.00  0.00    +0.231 C 
ATOM     43  O   UNL     1      10.336   1.027  -1.610  1.00  0.00    -0.246 OA
ATOM     44  N   UNL     1      11.962  -0.344  -0.651  1.00  0.00    -0.210 N 
ATOM     45  N   UNL     1      11.976  -1.344   0.287  1.00  0.00    -0.158 NA
BRANCH  44  46
ATOM     46  C   UNL     1      13.174   0.264  -1.178  1.00  0.00    +0.110 C 
ATOM     47  C   UNL     1      14.108  -0.802  -1.753  1.00  0.00    +0.033 C 
BRANCH  46  48
ATOM     48  C   UNL     1      13.903   1.103  -0.114  1.00  0.00    +0.024 C 
ATOM     49  C   UNL     1      13.083   2.288   0.378  1.00  0.00    +0.006 C 
ENDBRANCH  46  48
ENDBRANCH  44  46
ENDBRANCH  39  40
ENDBRANCH  33  34
ENDBRANCH   1  28
TORSDOF 11
