REMARK SMILES CC(=O)N1CCN(c2ccc(OC[C@H]3CO[C@](Cn4ccnc4)(c4ccc(Cl)cc4Cl)O3)cc2)CC1
REMARK SMILES IDX 13 1 14 2 17 3 32 4 16 5 15 6 24 7 30 8 29 9 25 10 27 11
REMARK SMILES IDX 26 12 31 13 28 14 18 15 19 16 20 17 23 18 21 19 22 20 12 21
REMARK SMILES IDX 11 22 10 23 33 24 9 25 34 26 8 27 7 28 6 29 35 30 5 31 36 32
REMARK SMILES IDX 4 33 2 34 3 35 1 36
REMARK H PARENT
ROOT
ATOM      1  C   UNL     1      -0.923   0.644   1.217  1.00  0.00    +0.264 C 
ENDROOT
BRANCH   1   2
ATOM      2  C   UNL     1      -2.422   0.363   1.182  1.00  0.00    +0.185 C 
ATOM      3  C   UNL     1      -4.320   0.742  -0.030  1.00  0.00    +0.215 C 
ATOM      4  O   UNL     1      -2.929   0.410  -0.158  1.00  0.00    -0.335 OA
ATOM      5  O   UNL     1      -4.535   1.301   1.290  1.00  0.00    -0.342 OA
ATOM      6  C   UNL     1      -3.236   1.422   1.876  1.00  0.00    +0.200 C 
BRANCH   3   7
ATOM      7  C   UNL     1      -5.167  -0.532  -0.178  1.00  0.00    +0.032 A 
ATOM      8  C   UNL     1      -4.987  -1.463  -1.223  1.00  0.00    +0.051 A 
ATOM      9  C   UNL     1      -5.786  -2.611  -1.315  1.00  0.00    +0.041 A 
ATOM     10  C   UNL     1      -6.195  -0.798   0.754  1.00  0.00    +0.012 A 
ATOM     11  C   UNL     1      -6.781  -2.845  -0.373  1.00  0.00    +0.042 A 
ATOM     12  C   UNL     1      -6.992  -1.942   0.660  1.00  0.00    +0.021 A 
ATOM     13 Cl   UNL     1      -3.805  -1.267  -2.472  1.00  0.00    -0.084 Cl
ATOM     14 Cl   UNL     1      -7.760  -4.254  -0.492  1.00  0.00    -0.084 Cl
ENDBRANCH   3   7
BRANCH   3  15
ATOM     15  C   UNL     1      -4.743   1.785  -1.090  1.00  0.00    +0.194 C 
BRANCH  15  16
ATOM     16  N   UNL     1      -3.986   3.023  -1.014  1.00  0.00    -0.332 N 
ATOM     17  C   UNL     1      -2.810   3.295  -1.655  1.00  0.00    +0.107 A 
ATOM     18  C   UNL     1      -4.339   4.135  -0.305  1.00  0.00    +0.199 A 
ATOM     19  C   UNL     1      -2.490   4.578  -1.278  1.00  0.00    +0.130 A 
ATOM     20  N   UNL     1      -3.442   5.087  -0.432  1.00  0.00    -0.245 NA
ENDBRANCH  15  16
ENDBRANCH   3  15
ENDBRANCH   1   2
BRANCH   1  21
ATOM     21  O   UNL     1      -0.239  -0.518   0.738  1.00  0.00    -0.491 OA
BRANCH  21  22
ATOM     22  C   UNL     1       1.123  -0.449   0.662  1.00  0.00    +0.119 A 
ATOM     23  C   UNL     1       1.741  -1.592   0.165  1.00  0.00    +0.048 A 
ATOM     24  C   UNL     1       1.916   0.631   1.030  1.00  0.00    +0.048 A 
ATOM     25  C   UNL     1       3.136  -1.656   0.037  1.00  0.00    +0.030 A 
ATOM     26  C   UNL     1       3.312   0.558   0.896  1.00  0.00    +0.030 A 
ATOM     27  C   UNL     1       3.962  -0.581   0.394  1.00  0.00    +0.037 A 
BRANCH  27  28
ATOM     28  N   UNL     1       5.344  -0.636   0.277  1.00  0.00    -0.368 N 
ATOM     29  C   UNL     1       6.049  -1.910   0.069  1.00  0.00    +0.138 C 
ATOM     30  C   UNL     1       6.120   0.604   0.074  1.00  0.00    +0.138 C 
ATOM     31  C   UNL     1       7.527  -1.808   0.492  1.00  0.00    +0.141 C 
ATOM     32  C   UNL     1       7.413   0.357  -0.726  1.00  0.00    +0.141 C 
ATOM     33  N   UNL     1       8.244  -0.702  -0.150  1.00  0.00    -0.339 N 
ATOM     34  C   UNL     1       9.621  -0.603  -0.233  1.00  0.00    +0.219 C 
ATOM     35  O   UNL     1      10.187   0.318  -0.821  1.00  0.00    -0.275 OA
ATOM     36  C   UNL     1      10.425  -1.693   0.430  1.00  0.00    +0.114 C 
ENDBRANCH  27  28
ENDBRANCH  21  22
ENDBRANCH   1  21
TORSDOF 7
