REMARK SMILES COC(=O)Nc1nc2ccc(C(=O)c3ccccc3)cc2[nH]1
REMARK SMILES IDX 22 1 7 2 21 3 8 4 11 5 20 6 9 7 10 8 6 9 12 11 13 12 14 13
REMARK SMILES IDX 15 14 19 15 16 16 18 17 17 18 5 19 3 20 4 21 2 23 1 24
REMARK H PARENT 22 10 5 22
ROOT
ATOM      1  N   UNL     1       2.142   0.082   1.504  1.00  0.00    -0.324 N 
ATOM      2  N   UNL     1       2.566   0.038  -0.661  1.00  0.00    -0.213 NA
ATOM      3  C   UNL     1       0.916   0.156   0.894  1.00  0.00    +0.068 A 
ATOM      4  C   UNL     1       1.214   0.135  -0.462  1.00  0.00    +0.091 A 
ATOM      5  C   UNL     1      -1.423   0.303   0.447  1.00  0.00    +0.025 A 
ATOM      6  C   UNL     1      -0.385   0.245   1.393  1.00  0.00    +0.040 A 
ATOM      7  C   UNL     1       0.171   0.216  -1.396  1.00  0.00    +0.031 A 
ATOM      8  C   UNL     1      -1.148   0.309  -0.929  1.00  0.00    +0.014 A 
ATOM      9  C   UNL     1       3.109   0.009   0.532  1.00  0.00    +0.210 A 
ATOM     10  H   UNL     1       2.304   0.082   2.499  1.00  0.00    +0.170 HD
ENDROOT
BRANCH   5  11
ATOM     11  C   UNL     1      -2.815   0.409   0.959  1.00  0.00    +0.193 C 
ATOM     12  O   UNL     1      -3.020   1.015   2.009  1.00  0.00    -0.289 OA
BRANCH  11  13
ATOM     13  C   UNL     1      -3.960  -0.203   0.240  1.00  0.00    +0.022 A 
ATOM     14  C   UNL     1      -3.842  -1.429  -0.425  1.00  0.00    +0.012 A 
ATOM     15  C   UNL     1      -5.196   0.454   0.275  1.00  0.00    +0.012 A 
ATOM     16  C   UNL     1      -4.948  -1.975  -1.079  1.00  0.00    +0.001 A 
ATOM     17  C   UNL     1      -6.299  -0.096  -0.380  1.00  0.00    +0.001 A 
ATOM     18  C   UNL     1      -6.173  -1.307  -1.060  1.00  0.00    +0.000 A 
ENDBRANCH  11  13
ENDBRANCH   5  11
BRANCH   9  19
ATOM     19  N   UNL     1       4.431  -0.078   0.872  1.00  0.00    -0.261 N 
ATOM     20  C   UNL     1       5.434  -0.157  -0.051  1.00  0.00    +0.413 C 
ATOM     21  O   UNL     1       5.362  -0.170  -1.269  1.00  0.00    -0.224 OA
ATOM     22  H   UNL     1       4.724  -0.086   1.834  1.00  0.00    +0.176 HD
BRANCH  20  23
ATOM     23  O   UNL     1       6.613  -0.225   0.633  1.00  0.00    -0.453 OA
ATOM     24  C   UNL     1       7.766  -0.311  -0.207  1.00  0.00    +0.284 C 
ENDBRANCH  20  23
ENDBRANCH   9  19
TORSDOF 4
