REMARK SMILES [H]/N=C(/N=C(N)N)N(C)C
REMARK SMILES IDX 4 1 6 2 7 3 5 4 3 9 8 10 2 11 9 12 10 13 1 14
REMARK H PARENT 6 5 6 6 7 7 7 8
ROOT
ATOM      1  N   UNL     1       0.707  -0.446  -0.130  1.00  0.00    -0.180 NA
ATOM      2  N   UNL     1       2.842  -0.959   0.506  1.00  0.00    -0.370 N 
ATOM      3  N   UNL     1       1.817   0.664   1.662  1.00  0.00    -0.370 N 
ATOM      4  C   UNL     1       1.715  -0.223   0.643  1.00  0.00    +0.194 C 
ATOM      5  H   UNL     1       3.711  -0.477   0.677  1.00  0.00    +0.159 HD
ATOM      6  H   UNL     1       2.842  -1.484  -0.360  1.00  0.00    +0.159 HD
ATOM      7  H   UNL     1       1.025   1.316   1.594  1.00  0.00    +0.159 HD
ATOM      8  H   UNL     1       2.679   1.185   1.685  1.00  0.00    +0.159 HD
ENDROOT
BRANCH   1   9
ATOM      9  C   UNL     1      -0.458   0.259  -0.007  1.00  0.00    +0.220 C 
ATOM     10  N   UNL     1      -1.652  -0.309  -0.404  1.00  0.00    -0.347 N 
ATOM     11  N   UNL     1      -0.401   1.472   0.449  1.00  0.00    -0.267 NA
ATOM     12  C   UNL     1      -1.586  -1.566  -1.150  1.00  0.00    +0.146 C 
ATOM     13  C   UNL     1      -2.798  -0.239   0.500  1.00  0.00    +0.146 C 
ATOM     14  H   UNL     1      -1.344   1.853   0.370  1.00  0.00    +0.191 HD
ENDBRANCH   1   9
TORSDOF 1
