REMARK SMILES O=C(Nc1ccc([N+](=O)[O-])cc1Cl)c1cc(Cl)ccc1O
REMARK SMILES IDX 1 1 3 2 2 3 4 5 12 6 11 7 5 8 7 9 6 10 13 11 8 12 9 13 10 14
REMARK SMILES IDX 14 15 20 16 15 17 19 18 16 19 18 20 17 21 21 22
REMARK H PARENT 3 4 21 23
ROOT
ATOM      1  O   UNL     1       0.941  -2.008  -0.226  1.00  0.00    -0.269 OA
ATOM      2  N   UNL     1       0.233   0.188   0.076  1.00  0.00    -0.321 N 
ATOM      3  C   UNL     1       1.172  -0.810  -0.090  1.00  0.00    +0.259 C 
ATOM      4  H   UNL     1       0.559   1.111   0.346  1.00  0.00    +0.170 HD
ENDROOT
BRANCH   2   5
ATOM      5  C   UNL     1      -1.178   0.067   0.031  1.00  0.00    +0.060 A 
ATOM      6  C   UNL     1      -1.955   1.205   0.334  1.00  0.00    +0.071 A 
ATOM      7  C   UNL     1      -3.351   1.162   0.308  1.00  0.00    +0.108 A 
ATOM      8  C   UNL     1      -1.837  -1.118  -0.311  1.00  0.00    +0.035 A 
ATOM      9  C   UNL     1      -3.987  -0.036  -0.031  1.00  0.00    +0.271 A 
ATOM     10  C   UNL     1      -3.236  -1.175  -0.341  1.00  0.00    +0.088 A 
ATOM     11 Cl   UNL     1      -1.197   2.707   0.752  1.00  0.00    -0.082 Cl
BRANCH   9  12
ATOM     12  N   UNL     1      -5.453  -0.097  -0.064  1.00  0.00    +0.062 N 
ATOM     13  O   UNL     1      -6.077   0.935   0.222  1.00  0.00    -0.258 OA
ATOM     14  O   UNL     1      -5.978  -1.175  -0.375  1.00  0.00    -0.258 OA
ENDBRANCH   9  12
ENDBRANCH   2   5
BRANCH   3  15
ATOM     15  C   UNL     1       2.602  -0.387  -0.038  1.00  0.00    +0.083 A 
ATOM     16  C   UNL     1       3.582  -1.310   0.363  1.00  0.00    +0.128 A 
ATOM     17  C   UNL     1       2.998   0.908  -0.405  1.00  0.00    +0.038 A 
ATOM     18  C   UNL     1       4.923  -0.938   0.445  1.00  0.00    +0.048 A 
ATOM     19  C   UNL     1       4.345   1.270  -0.328  1.00  0.00    +0.042 A 
ATOM     20  C   UNL     1       5.306   0.358   0.102  1.00  0.00    +0.024 A 
ATOM     21 Cl   UNL     1       4.821   2.862  -0.774  1.00  0.00    -0.084 Cl
BRANCH  16  22
ATOM     22  O   UNL     1       3.298  -2.608   0.694  1.00  0.00    -0.507 OA
ATOM     23  H   UNL     1       2.370  -2.795   0.425  1.00  0.00    +0.293 HD
ENDBRANCH  16  22
ENDBRANCH   3  15
TORSDOF 4
