REMARK SMILES CC(=O)Oc1ccccc1C(=O)Nc1ncc([N+](=O)[O-])s1
REMARK SMILES IDX 10 1 5 2 9 3 6 4 8 5 7 6 11 7 13 8 12 9 14 11 21 12 17 13
REMARK SMILES IDX 15 14 16 15 18 16 19 17 20 18 4 19 2 20 3 21 1 22
REMARK H PARENT 13 10
ROOT
ATOM      1  C   UNL     1      -2.059  -0.931  -0.557  1.00  0.00    +0.083 A 
ATOM      2  C   UNL     1      -3.192  -0.170  -0.245  1.00  0.00    +0.143 A 
ATOM      3  C   UNL     1      -2.136  -2.329  -0.547  1.00  0.00    +0.018 A 
ATOM      4  C   UNL     1      -4.405  -0.794   0.050  1.00  0.00    +0.048 A 
ATOM      5  C   UNL     1      -3.346  -2.954  -0.233  1.00  0.00    +0.001 A 
ATOM      6  C   UNL     1      -4.476  -2.188   0.062  1.00  0.00    +0.004 A 
ENDROOT
BRANCH   1   7
ATOM      7  C   UNL     1      -0.781  -0.273  -0.910  1.00  0.00    +0.261 C 
ATOM      8  N   UNL     1       0.257  -0.622  -0.080  1.00  0.00    -0.298 N 
ATOM      9  O   UNL     1      -0.771   0.518  -1.843  1.00  0.00    -0.269 OA
ATOM     10  H   UNL     1       0.080  -1.174   0.747  1.00  0.00    +0.172 HD
BRANCH   8  11
ATOM     11  C   UNL     1       1.508  -0.090  -0.213  1.00  0.00    +0.195 A 
ATOM     12  S   UNL     1       2.593  -0.553   1.025  1.00  0.00    -0.024 S 
ATOM     13  C   UNL     1       3.795   0.386   0.274  1.00  0.00    +0.345 A 
ATOM     14  N   UNL     1       1.985   0.701  -1.142  1.00  0.00    -0.221 NA
ATOM     15  C   UNL     1       3.310   0.986  -0.864  1.00  0.00    +0.212 A 
BRANCH  13  16
ATOM     16  N   UNL     1       5.114   0.492   0.807  1.00  0.00    +0.076 N 
ATOM     17  O   UNL     1       5.381  -0.140   1.837  1.00  0.00    -0.257 OA
ATOM     18  O   UNL     1       5.902   1.217   0.185  1.00  0.00    -0.257 OA
ENDBRANCH  13  16
ENDBRANCH   8  11
ENDBRANCH   1   7
BRANCH   2  19
ATOM     19  O   UNL     1      -3.184   1.229  -0.254  1.00  0.00    -0.426 OA
BRANCH  19  20
ATOM     20  C   UNL     1      -2.401   1.794   0.747  1.00  0.00    +0.308 C 
ATOM     21  O   UNL     1      -1.820   1.191   1.643  1.00  0.00    -0.252 OA
ATOM     22  C   UNL     1      -2.381   3.282   0.571  1.00  0.00    +0.139 C 
ENDBRANCH  19  20
ENDBRANCH   2  19
TORSDOF 5
