REMARK SMILES O=C(C1CCCCC1)N1CC(=O)N2CCc3ccccc3[C@@H]2C1
REMARK SMILES IDX 1 1 2 2 9 3 23 4 10 5 22 6 11 7 13 8 21 9 12 10 14 11 16 12
REMARK SMILES IDX 20 13 15 14 17 15 19 16 18 17 3 18 4 19 8 20 5 21 7 22 6 23
REMARK H PARENT
ROOT
ATOM      1  O   UNL     1      -3.090   2.208  -0.153  1.00  0.00    -0.275 OA
ATOM      2  C   UNL     1      -2.387   1.197  -0.202  1.00  0.00    +0.226 C 
ENDROOT
BRANCH   2   3
ATOM      3  N   UNL     1      -1.001   1.286  -0.125  1.00  0.00    -0.331 N 
ATOM      4  C   UNL     1      -0.070   0.234  -0.537  1.00  0.00    +0.150 C 
ATOM      5  C   UNL     1      -0.440   2.638  -0.082  1.00  0.00    +0.219 C 
ATOM      6  C   UNL     1       1.238   0.324   0.277  1.00  0.00    +0.135 C 
ATOM      7  C   UNL     1       1.074   2.794   0.150  1.00  0.00    +0.242 C 
ATOM      8  N   UNL     1       1.852   1.644   0.076  1.00  0.00    -0.332 N 
ATOM      9  C   UNL     1       2.176  -0.843  -0.014  1.00  0.00    -0.020 A 
ATOM     10  O   UNL     1       1.566   3.913   0.304  1.00  0.00    -0.273 OA
ATOM     11  C   UNL     1       3.291   1.748   0.269  1.00  0.00    +0.125 C 
ATOM     12  C   UNL     1       3.499  -0.632  -0.450  1.00  0.00    -0.041 A 
ATOM     13  C   UNL     1       1.743  -2.165   0.197  1.00  0.00    +0.006 A 
ATOM     14  C   UNL     1       4.024   0.768  -0.639  1.00  0.00    +0.057 C 
ATOM     15  C   UNL     1       4.329  -1.726  -0.735  1.00  0.00    +0.004 A 
ATOM     16  C   UNL     1       2.582  -3.247  -0.072  1.00  0.00    +0.000 A 
ATOM     17  C   UNL     1       3.871  -3.028  -0.548  1.00  0.00    +0.000 A 
ENDBRANCH   2   3
BRANCH   2  18
ATOM     18  C   UNL     1      -3.021  -0.194  -0.293  1.00  0.00    +0.078 C 
ATOM     19  C   UNL     1      -2.904  -0.920   1.057  1.00  0.00    +0.013 C 
ATOM     20  C   UNL     1      -4.500  -0.102  -0.709  1.00  0.00    +0.013 C 
ATOM     21  C   UNL     1      -3.558  -2.299   1.012  1.00  0.00    +0.001 C 
ATOM     22  C   UNL     1      -5.155  -1.480  -0.763  1.00  0.00    +0.001 C 
ATOM     23  C   UNL     1      -5.014  -2.219   0.564  1.00  0.00    +0.000 C 
ENDBRANCH   2  18
TORSDOF 2
