REMARK SMILES COc1cc(OC)cc(-c2cc(C3CC(C)(C)OC(C)(C)C3)nn2-c2ccccc2OC)c1
REMARK SMILES IDX 23 1 24 2 12 3 11 4 10 5 13 6 18 7 15 8 19 9 14 10 22 11
REMARK SMILES IDX 16 12 17 13 20 14 21 15 25 16 30 17 26 18 29 19 27 20 28 21
REMARK SMILES IDX 31 22 32 23 9 24 8 25 33 26 5 27 3 28 4 29 6 30 7 31 2 32
REMARK SMILES IDX 1 33
REMARK H PARENT
ROOT
ATOM      1  N   UNL     1      -0.950  -1.182   0.637  1.00  0.00    -0.172 NA
ATOM      2  N   UNL     1       0.343  -0.831   0.533  1.00  0.00    -0.229 N 
ATOM      3  C   UNL     1      -1.595  -0.098   0.200  1.00  0.00    +0.067 A 
ATOM      4  C   UNL     1      -0.721   0.938  -0.181  1.00  0.00    +0.055 A 
ATOM      5  C   UNL     1       0.534   0.430   0.048  1.00  0.00    +0.075 A 
ENDROOT
BRANCH   3   6
ATOM      6  C   UNL     1      -3.114  -0.088   0.159  1.00  0.00    +0.046 C 
ATOM      7  O   UNL     1      -5.740   1.031  -0.338  1.00  0.00    -0.370 OA
ATOM      8  C   UNL     1      -5.248   1.026   1.007  1.00  0.00    +0.064 C 
ATOM      9  C   UNL     1      -5.193   0.128  -1.306  1.00  0.00    +0.064 C 
ATOM     10  C   UNL     1      -3.710   1.000   1.061  1.00  0.00    +0.045 C 
ATOM     11  C   UNL     1      -3.654   0.098  -1.265  1.00  0.00    +0.045 C 
ATOM     12  C   UNL     1      -5.877  -0.103   1.834  1.00  0.00    +0.042 C 
ATOM     13  C   UNL     1      -5.739   2.356   1.608  1.00  0.00    +0.042 C 
ATOM     14  C   UNL     1      -5.636   0.697  -2.667  1.00  0.00    +0.042 C 
ATOM     15  C   UNL     1      -5.804  -1.273  -1.181  1.00  0.00    +0.042 C 
ENDBRANCH   3   6
BRANCH   2  16
ATOM     16  C   UNL     1       1.333  -1.739   0.911  1.00  0.00    +0.107 A 
ATOM     17  C   UNL     1       1.441  -2.979   0.281  1.00  0.00    +0.144 A 
ATOM     18  C   UNL     1       2.221  -1.395   1.930  1.00  0.00    +0.032 A 
ATOM     19  C   UNL     1       2.437  -3.875   0.671  1.00  0.00    +0.049 A 
ATOM     20  C   UNL     1       3.217  -2.291   2.320  1.00  0.00    +0.003 A 
ATOM     21  C   UNL     1       3.324  -3.531   1.691  1.00  0.00    +0.004 A 
BRANCH  17  22
ATOM     22  O   UNL     1       0.586  -3.339  -0.718  1.00  0.00    -0.494 OA
ATOM     23  C   UNL     1       0.970  -3.005  -2.049  1.00  0.00    +0.278 C 
ENDBRANCH  17  22
ENDBRANCH   2  16
BRANCH   5  24
ATOM     24  C   UNL     1       1.827   1.042  -0.155  1.00  0.00    +0.008 A 
ATOM     25  C   UNL     1       2.746   0.459  -1.027  1.00  0.00    +0.057 A 
ATOM     26  C   UNL     1       2.156   2.217   0.522  1.00  0.00    +0.057 A 
ATOM     27  C   UNL     1       3.994   1.051  -1.223  1.00  0.00    +0.123 A 
ATOM     28  C   UNL     1       3.404   2.808   0.326  1.00  0.00    +0.123 A 
ATOM     29  C   UNL     1       4.323   2.225  -0.546  1.00  0.00    +0.092 A 
BRANCH  27  30
ATOM     30  O   UNL     1       4.891   0.482  -2.075  1.00  0.00    -0.497 OA
ATOM     31  C   UNL     1       4.489  -0.718  -2.734  1.00  0.00    +0.278 C 
ENDBRANCH  27  30
BRANCH  28  32
ATOM     32  O   UNL     1       3.726   3.954   0.986  1.00  0.00    -0.497 OA
ATOM     33  C   UNL     1       5.019   4.505   0.739  1.00  0.00    +0.278 C 
ENDBRANCH  28  32
ENDBRANCH   5  24
TORSDOF 6
