REMARK SMILES COc1cc2c(c(OC)c1OC)-c1ccc(OC)c(=O)cc1[C@@H](NC(C)=O)CC2
REMARK SMILES IDX 20 1 23 2 28 3 29 4 22 5 5 6 6 7 13 8 7 9 4 10 21 11 14 12
REMARK SMILES IDX 10 13 3 14 19 15 15 16 16 17 8 18 9 19 11 20 12 21 2 22 1 23
REMARK SMILES IDX 24 24 25 25 27 26 26 28 17 29 18 30
REMARK H PARENT 24 27
ROOT
ATOM      1  O   UNL     1      -4.555  -0.293  -1.698  1.00  0.00    -0.286 OA
ATOM      2  C   UNL     1      -0.727  -2.119   0.463  1.00  0.00    +0.113 C 
ATOM      3  C   UNL     1      -0.150  -2.239   1.893  1.00  0.00    +0.034 C 
ATOM      4  C   UNL     1       0.455  -0.981   2.531  1.00  0.00    +0.039 C 
ATOM      5  C   UNL     1      -1.549  -0.861   0.165  1.00  0.00    -0.014 A 
ATOM      6  C   UNL     1       1.240  -0.132   1.567  1.00  0.00    -0.032 A 
ATOM      7  C   UNL     1       0.575   0.558   0.531  1.00  0.00    +0.031 A 
ATOM      8  C   UNL     1      -0.908   0.442   0.399  1.00  0.00    -0.009 A 
ATOM      9  C   UNL     1       1.320   1.318  -0.384  1.00  0.00    +0.172 A 
ATOM     10  C   UNL     1       2.634  -0.036   1.676  1.00  0.00    +0.055 A 
ATOM     11  C   UNL     1      -2.771  -1.039  -0.371  1.00  0.00    +0.062 A 
ATOM     12  C   UNL     1      -1.564   1.599   0.611  1.00  0.00    +0.013 A 
ATOM     13  C   UNL     1       2.707   1.405  -0.262  1.00  0.00    +0.203 A 
ATOM     14  C   UNL     1       3.361   0.731   0.766  1.00  0.00    +0.164 A 
ATOM     15  C   UNL     1      -3.783  -0.036  -0.776  1.00  0.00    +0.220 A 
ATOM     16  C   UNL     1      -2.980   1.851   0.648  1.00  0.00    +0.051 A 
ATOM     17  C   UNL     1      -3.963   1.197   0.024  1.00  0.00    +0.166 A 
ENDROOT
BRANCH   9  18
ATOM     18  O   UNL     1       0.709   1.962  -1.422  1.00  0.00    -0.492 OA
ATOM     19  C   UNL     1       0.576   1.237  -2.641  1.00  0.00    +0.278 C 
ENDBRANCH   9  18
BRANCH  13  20
ATOM     20  O   UNL     1       3.426   2.145  -1.155  1.00  0.00    -0.490 OA
ATOM     21  C   UNL     1       3.644   3.516  -0.831  1.00  0.00    +0.278 C 
ENDBRANCH  13  20
BRANCH  14  22
ATOM     22  O   UNL     1       4.716   0.808   0.892  1.00  0.00    -0.493 OA
ATOM     23  C   UNL     1       5.487  -0.174   0.203  1.00  0.00    +0.278 C 
ENDBRANCH  14  22
BRANCH   2  24
ATOM     24  N   UNL     1       0.300  -2.266  -0.550  1.00  0.00    -0.350 N 
ATOM     25  C   UNL     1       0.773  -3.495  -0.969  1.00  0.00    +0.217 C 
ATOM     26  O   UNL     1       0.403  -4.591  -0.556  1.00  0.00    -0.275 OA
ATOM     27  H   UNL     1       0.682  -1.437  -0.995  1.00  0.00    +0.164 HD
ATOM     28  C   UNL     1       1.816  -3.362  -2.046  1.00  0.00    +0.114 C 
ENDBRANCH   2  24
BRANCH  17  29
ATOM     29  O   UNL     1      -5.252   1.704   0.095  1.00  0.00    -0.493 OA
ATOM     30  C   UNL     1      -5.941   1.152   1.196  1.00  0.00    +0.278 C 
ENDBRANCH  17  29
TORSDOF 5
