REMARK SMILES COC(=O)Nc1nc2ccc(C(=O)c3cccs3)cc2[nH]1
REMARK SMILES IDX 21 1 7 2 20 3 8 4 11 5 19 6 9 7 6 8 10 9 12 11 13 12 14 13
REMARK SMILES IDX 18 14 17 15 15 16 16 17 5 18 3 19 4 20 2 22 1 23
REMARK H PARENT 21 10 5 21
ROOT
ATOM      1  N   UNL     1       1.587   0.386  -1.143  1.00  0.00    -0.324 N 
ATOM      2  N   UNL     1       2.261  -0.584   0.740  1.00  0.00    -0.213 NA
ATOM      3  C   UNL     1       0.456  -0.149  -0.582  1.00  0.00    +0.068 A 
ATOM      4  C   UNL     1       0.902  -0.749   0.593  1.00  0.00    +0.091 A 
ATOM      5  C   UNL     1      -1.787  -0.814  -0.149  1.00  0.00    +0.026 A 
ATOM      6  C   UNL     1      -0.879  -0.160  -0.988  1.00  0.00    +0.040 A 
ATOM      7  C   UNL     1      -0.023  -1.402   1.423  1.00  0.00    +0.031 A 
ATOM      8  C   UNL     1       2.638   0.100  -0.317  1.00  0.00    +0.210 A 
ATOM      9  C   UNL     1      -1.369  -1.425   1.036  1.00  0.00    +0.014 A 
ATOM     10  H   UNL     1       1.635   0.900  -2.012  1.00  0.00    +0.170 HD
ENDROOT
BRANCH   5  11
ATOM     11  C   UNL     1      -3.194  -0.859  -0.519  1.00  0.00    +0.203 C 
ATOM     12  O   UNL     1      -3.599  -1.813  -1.200  1.00  0.00    -0.288 OA
BRANCH  11  13
ATOM     13  C   UNL     1      -4.127   0.200  -0.083  1.00  0.00    +0.075 A 
ATOM     14  S   UNL     1      -5.741   0.065  -0.559  1.00  0.00    -0.140 S 
ATOM     15  C   UNL     1      -6.115   1.521   0.261  1.00  0.00    +0.065 A 
ATOM     16  C   UNL     1      -3.838   1.282   0.665  1.00  0.00    +0.024 A 
ATOM     17  C   UNL     1      -5.008   2.068   0.873  1.00  0.00    +0.012 A 
ENDBRANCH  11  13
ENDBRANCH   5  11
BRANCH   8  18
ATOM     18  N   UNL     1       3.903   0.520  -0.635  1.00  0.00    -0.261 N 
ATOM     19  C   UNL     1       5.109   0.336   0.068  1.00  0.00    +0.413 C 
ATOM     20  O   UNL     1       5.247  -0.258   1.130  1.00  0.00    -0.224 OA
ATOM     21  H   UNL     1       3.983   1.042  -1.505  1.00  0.00    +0.176 HD
BRANCH  19  22
ATOM     22  O   UNL     1       6.143   0.924  -0.610  1.00  0.00    -0.453 OA
ATOM     23  C   UNL     1       7.436   0.813  -0.004  1.00  0.00    +0.284 C 
ENDBRANCH  19  22
ENDBRANCH   8  18
TORSDOF 4
