REMARK SMILES COc1ccc(C2=N[C@@H](c3ccc(Cl)cc3)[C@@H](c3ccc(Cl)cc3)N2C(=O)N2CCNC(=O)C2)c(OC(C)C)c1
REMARK SMILES IDX 6 1 35 2 5 3 40 4 4 5 3 6 7 7 17 8 25 9 9 10 8 11 18 12
REMARK SMILES IDX 21 13 20 14 23 15 19 16 24 17 22 18 26 19 27 20 28 21 29 22
REMARK SMILES IDX 34 23 30 24 32 25 31 26 33 27 10 29 11 30 16 31 12 32 15 33
REMARK SMILES IDX 13 34 14 35 36 36 37 37 38 38 39 39 2 40 1 41
REMARK H PARENT 31 28
ROOT
ATOM      1  C   UNL     1       1.685  -1.707   0.322  1.00  0.00    +0.060 A 
ATOM      2  C   UNL     1       2.953  -1.288  -0.083  1.00  0.00    +0.134 A 
ATOM      3  C   UNL     1       1.556  -2.755   1.233  1.00  0.00    +0.019 A 
ATOM      4  C   UNL     1       4.090  -1.917   0.423  1.00  0.00    +0.093 A 
ATOM      5  C   UNL     1       2.693  -3.384   1.739  1.00  0.00    +0.047 A 
ATOM      6  C   UNL     1       3.960  -2.966   1.334  1.00  0.00    +0.122 A 
ENDROOT
BRANCH   1   7
ATOM      7  C   UNL     1       0.477  -1.058  -0.197  1.00  0.00    +0.144 C 
ATOM      8  C   UNL     1      -1.122   0.567  -0.457  1.00  0.00    +0.153 C 
ATOM      9  N   UNL     1       0.233   0.307   0.018  1.00  0.00    -0.268 N 
ATOM     10  C   UNL     1      -1.395  -0.677  -1.333  1.00  0.00    +0.165 C 
ATOM     11  N   UNL     1      -0.430  -1.713  -0.859  1.00  0.00    -0.257 NA
BRANCH   8  12
ATOM     12  C   UNL     1      -2.084   0.786   0.704  1.00  0.00    -0.022 A 
ATOM     13  C   UNL     1      -3.845   1.188   2.830  1.00  0.00    +0.041 A 
ATOM     14  C   UNL     1      -2.692   0.426   3.014  1.00  0.00    +0.021 A 
ATOM     15  C   UNL     1      -4.119   1.748   1.582  1.00  0.00    +0.021 A 
ATOM     16  C   UNL     1      -1.811   0.225   1.952  1.00  0.00    +0.007 A 
ATOM     17  C   UNL     1      -3.238   1.548   0.519  1.00  0.00    +0.007 A 
ATOM     18 Cl   UNL     1      -4.932   1.435   4.141  1.00  0.00    -0.084 Cl
ENDBRANCH   8  12
BRANCH   9  19
ATOM     19  C   UNL     1       0.985   1.229   0.770  1.00  0.00    +0.326 C 
ATOM     20  O   UNL     1       1.638   0.866   1.754  1.00  0.00    -0.248 OA
BRANCH  19  21
ATOM     21  N   UNL     1       0.868   2.573   0.389  1.00  0.00    -0.313 N 
ATOM     22  C   UNL     1       1.194   3.626   1.340  1.00  0.00    +0.143 C 
ATOM     23  C   UNL     1       0.689   3.028  -0.988  1.00  0.00    +0.221 C 
ATOM     24  C   UNL     1       2.518   4.234   0.932  1.00  0.00    +0.137 C 
ATOM     25  C   UNL     1       1.740   4.035  -1.438  1.00  0.00    +0.239 C 
ATOM     26  N   UNL     1       2.500   4.640  -0.460  1.00  0.00    -0.353 N 
ATOM     27  O   UNL     1       1.824   4.356  -2.625  1.00  0.00    -0.273 OA
ATOM     28  H   UNL     1       3.180   5.333  -0.756  1.00  0.00    +0.163 HD
ENDBRANCH  19  21
ENDBRANCH   9  19
BRANCH  10  29
ATOM     29  C   UNL     1      -2.832  -1.133  -1.436  1.00  0.00    -0.021 A 
ATOM     30  C   UNL     1      -3.652  -0.631  -2.447  1.00  0.00    +0.007 A 
ATOM     31  C   UNL     1      -3.338  -2.056  -0.521  1.00  0.00    +0.007 A 
ATOM     32  C   UNL     1      -4.978  -1.052  -2.542  1.00  0.00    +0.021 A 
ATOM     33  C   UNL     1      -4.665  -2.477  -0.617  1.00  0.00    +0.021 A 
ATOM     34  C   UNL     1      -5.485  -1.975  -1.628  1.00  0.00    +0.041 A 
ATOM     35 Cl   UNL     1      -7.121  -2.494  -1.746  1.00  0.00    -0.084 Cl
ENDBRANCH  10  29
ENDBRANCH   1   7
BRANCH   2  36
ATOM     36  O   UNL     1       3.101  -0.265  -0.972  1.00  0.00    -0.490 OA
BRANCH  36  37
ATOM     37  C   UNL     1       3.774  -0.562  -2.193  1.00  0.00    +0.167 C 
ATOM     38  C   UNL     1       5.029   0.292  -2.293  1.00  0.00    +0.052 C 
ATOM     39  C   UNL     1       2.828  -0.317  -3.359  1.00  0.00    +0.052 C 
ENDBRANCH  36  37
ENDBRANCH   2  36
BRANCH   6  40
ATOM     40  O   UNL     1       5.070  -3.580   1.827  1.00  0.00    -0.497 OA
ATOM     41  C   UNL     1       6.334  -3.102   1.371  1.00  0.00    +0.278 C 
ENDBRANCH   6  40
TORSDOF 8
