REMARK SMILES O=[N+]([O-])c1ccc2c(c1)S(=O)(=O)C=C2
REMARK SMILES IDX 3 1 1 2 2 3 4 4 10 5 11 6 12 7 8 8 13 9 7 10 9 11 14 12 6 13
REMARK SMILES IDX 5 14
REMARK H PARENT
ROOT
ATOM      1  O   UNL     1       3.960   0.265  -0.002  1.00  0.00    -0.258 OA
ATOM      2  O   UNL     1       3.080  -1.746   0.000  1.00  0.00    -0.258 OA
ATOM      3  N   UNL     1       2.963  -0.497  -0.000  1.00  0.00    +0.062 N 
ENDROOT
BRANCH   3   4
ATOM      4  C   UNL     1       1.662   0.072   0.001  1.00  0.00    +0.270 A 
ATOM      5  S   UNL     1      -2.240  -0.937  -0.000  1.00  0.00    +0.200 S 
ATOM      6  O   UNL     1      -2.393  -1.611   1.272  1.00  0.00    -0.219 OA
ATOM      7  O   UNL     1      -2.392  -1.611  -1.272  1.00  0.00    -0.219 OA
ATOM      8  C   UNL     1      -0.690  -0.142   0.000  1.00  0.00    +0.085 A 
ATOM      9  C   UNL     1      -3.110   0.572  -0.001  1.00  0.00    +0.112 C 
ATOM     10  C   UNL     1      -0.868   1.238   0.000  1.00  0.00    -0.005 A 
ATOM     11  C   UNL     1       0.543  -0.759   0.001  1.00  0.00    +0.107 A 
ATOM     12  C   UNL     1      -2.275   1.622  -0.001  1.00  0.00    +0.022 C 
ATOM     13  C   UNL     1       0.245   2.062   0.000  1.00  0.00    +0.016 A 
ATOM     14  C   UNL     1       1.515   1.471   0.001  1.00  0.00    +0.086 A 
ENDBRANCH   3   4
TORSDOF 1
