REMARK SMILES CN[C@@H]1C[C@H]2O[C@@](C)([C@@H]1OC)n1c3ccccc3c3c4c(c5c6ccccc6n2c5c31)C(=O)NC4
REMARK SMILES IDX 6 1 33 2 12 3 29 4 34 5 7 6 9 7 5 8 3 9 4 10 31 11 30 12
REMARK SMILES IDX 19 13 22 14 13 15 8 16 28 17 18 18 20 19 21 20 23 21 35 22
REMARK SMILES IDX 14 23 32 24 17 25 27 26 24 27 15 28 16 29 26 30 25 31 10 33
REMARK SMILES IDX 11 34 2 35 1 36
REMARK H PARENT 34 32 2 37
ROOT
ATOM      1  O   UNL     1       1.006  -1.886   1.774  1.00  0.00    -0.329 OA
ATOM      2  O   UNL     1      -4.506   2.501  -0.384  1.00  0.00    -0.269 OA
ATOM      3  N   UNL     1       1.603   0.069   0.596  1.00  0.00    -0.307 N 
ATOM      4  N   UNL     1      -0.929  -1.542   0.546  1.00  0.00    -0.312 N 
ATOM      5  N   UNL     1      -2.795   4.093  -0.501  1.00  0.00    -0.348 N 
ATOM      6  C   UNL     1       2.082  -1.214   1.115  1.00  0.00    +0.173 C 
ATOM      7  C   UNL     1       2.735  -2.161   0.068  1.00  0.00    +0.188 C 
ATOM      8  C   UNL     1       0.051  -2.514   0.951  1.00  0.00    +0.224 C 
ATOM      9  C   UNL     1       1.760  -2.771  -0.944  1.00  0.00    +0.091 C 
ATOM     10  C   UNL     1       0.605  -3.396  -0.172  1.00  0.00    +0.077 C 
ATOM     11  C   UNL     1       0.331   0.572   0.398  1.00  0.00    +0.077 A 
ATOM     12  C   UNL     1      -0.874  -0.190   0.383  1.00  0.00    +0.077 A 
ATOM     13  C   UNL     1       0.135   1.977   0.113  1.00  0.00    +0.016 A 
ATOM     14  C   UNL     1      -2.091   0.559   0.121  1.00  0.00    +0.023 A 
ATOM     15  C   UNL     1       2.382   1.216   0.326  1.00  0.00    +0.052 A 
ATOM     16  C   UNL     1       3.054  -1.004   2.303  1.00  0.00    +0.071 C 
ATOM     17  C   UNL     1      -2.289  -1.804   0.371  1.00  0.00    +0.052 A 
ATOM     18  C   UNL     1       1.540   2.346   0.088  1.00  0.00    +0.008 A 
ATOM     19  C   UNL     1      -1.045   2.687  -0.093  1.00  0.00    -0.005 A 
ATOM     20  C   UNL     1      -2.205   1.931  -0.078  1.00  0.00    +0.055 A 
ATOM     21  C   UNL     1      -3.002  -0.592   0.133  1.00  0.00    +0.008 A 
ATOM     22  C   UNL     1      -1.353   4.120  -0.376  1.00  0.00    +0.153 C 
ATOM     23  C   UNL     1       3.783   1.391   0.277  1.00  0.00    +0.027 A 
ATOM     24  C   UNL     1      -3.335   2.821  -0.334  1.00  0.00    +0.252 C 
ATOM     25  C   UNL     1       2.145   3.607  -0.160  1.00  0.00    +0.011 A 
ATOM     26  C   UNL     1      -2.961  -3.045   0.414  1.00  0.00    +0.027 A 
ATOM     27  C   UNL     1      -4.404  -0.692  -0.059  1.00  0.00    +0.011 A 
ATOM     28  C   UNL     1       4.339   2.649   0.024  1.00  0.00    +0.002 A 
ATOM     29  C   UNL     1       3.530   3.749  -0.187  1.00  0.00    +0.001 A 
ATOM     30  C   UNL     1      -4.341  -3.089   0.220  1.00  0.00    +0.002 A 
ATOM     31  C   UNL     1      -5.056  -1.927  -0.013  1.00  0.00    +0.001 A 
ATOM     32  H   UNL     1      -3.357   4.916  -0.693  1.00  0.00    +0.164 HD
ENDROOT
BRANCH   7  33
ATOM     33  O   UNL     1       3.831  -1.586  -0.628  1.00  0.00    -0.375 OA
ATOM     34  C   UNL     1       4.528  -2.556  -1.399  1.00  0.00    +0.195 C 
ENDBRANCH   7  33
BRANCH   9  35
ATOM     35  N   UNL     1       1.306  -1.829  -1.965  1.00  0.00    -0.314 NA
ATOM     36  C   UNL     1       0.440  -2.490  -2.929  1.00  0.00    +0.101 C 
ATOM     37  H   UNL     1       2.115  -1.439  -2.448  1.00  0.00    +0.122 HD
ENDBRANCH   9  35
TORSDOF 2
