MODEL 1
REMARK VINA RESULT:    -5.673      0.000      0.000
REMARK INTER + INTRA:          -8.038
REMARK INTER:                  -7.331
REMARK INTRA:                  -0.707
REMARK UNBOUND:                -0.707
REMARK SMILES CCCSc1ccc2nc(NC(=O)OC)[nH]c2c1
REMARK SMILES IDX 16 1 9 2 17 3 8 4 5 5 18 6 7 7 10 8 6 9 4 11 3 12 2 13 1 14
REMARK SMILES IDX 11 15 12 16 13 17 14 19 15 20
REMARK H PARENT 16 10 11 18
ROOT
ATOM      1  N   UNL     1      -0.301  12.272  -1.272  1.00  0.00    -0.324 N 
ATOM      2  N   UNL     1       0.048  13.373   0.609  1.00  0.00    -0.213 NA
ATOM      3  C   UNL     1       1.056  12.456  -1.207  1.00  0.00    +0.068 A 
ATOM      4  C   UNL     1       1.244  13.152  -0.021  1.00  0.00    +0.091 A 
ATOM      5  C   UNL     1       3.401  12.449  -1.662  1.00  0.00    +0.009 A 
ATOM      6  C   UNL     1       2.102  12.090  -2.058  1.00  0.00    +0.043 A 
ATOM      7  C   UNL     1       2.542  13.521   0.357  1.00  0.00    +0.032 A 
ATOM      8  C   UNL     1      -0.872  12.837  -0.158  1.00  0.00    +0.210 A 
ATOM      9  C   UNL     1       3.612  13.167  -0.477  1.00  0.00    +0.017 A 
ATOM     10  H   UNL     1      -0.796  11.802  -2.013  1.00  0.00    +0.170 HD
ENDROOT
BRANCH   5  11
ATOM     11  S   UNL     1       4.761  12.003  -2.734  1.00  0.00    -0.126 SA
BRANCH  11  12
ATOM     12  C   UNL     1       5.172  10.357  -2.058  1.00  0.00    +0.075 C 
BRANCH  12  13
ATOM     13  C   UNL     1       6.176  10.504  -0.916  1.00  0.00    +0.008 C 
ATOM     14  C   UNL     1       7.130  11.662  -1.174  1.00  0.00    +0.005 C 
ENDBRANCH  12  13
ENDBRANCH  11  12
ENDBRANCH   5  11
BRANCH   8  15
ATOM     15  N   UNL     1      -2.227  12.792   0.030  1.00  0.00    -0.261 N 
ATOM     16  C   UNL     1      -2.964  11.656  -0.134  1.00  0.00    +0.413 C 
ATOM     17  O   UNL     1      -2.598  10.538  -0.458  1.00  0.00    -0.224 OA
ATOM     18  H   UNL     1      -2.743  13.611   0.303  1.00  0.00    +0.176 HD
BRANCH  16  19
ATOM     19  O   UNL     1      -4.264  11.973   0.136  1.00  0.00    -0.453 OA
ATOM     20  C   UNL     1      -4.417  13.088   1.018  1.00  0.00    +0.284 C 
ENDBRANCH  16  19
ENDBRANCH   8  15
TORSDOF 5
ENDMDL
MODEL 2
REMARK VINA RESULT:    -5.511      9.023     10.542
REMARK INTER + INTRA:          -7.829
REMARK INTER:                  -7.359
REMARK INTRA:                  -0.470
REMARK UNBOUND:                -0.707
REMARK SMILES CCCSc1ccc2nc(NC(=O)OC)[nH]c2c1
REMARK SMILES IDX 16 1 9 2 17 3 8 4 5 5 18 6 7 7 10 8 6 9 4 11 3 12 2 13 1 14
REMARK SMILES IDX 11 15 12 16 13 17 14 19 15 20
REMARK H PARENT 16 10 11 18
ROOT
ATOM      1  N   UNL     1       2.817   8.659  -9.122  1.00  0.00    -0.324 N 
ATOM      2  N   UNL     1       2.190   8.059 -11.151  1.00  0.00    -0.213 NA
ATOM      3  C   UNL     1       2.908   9.798  -9.879  1.00  0.00    +0.068 A 
ATOM      4  C   UNL     1       2.513   9.391 -11.146  1.00  0.00    +0.091 A 
ATOM      5  C   UNL     1       3.259  12.039 -10.628  1.00  0.00    +0.009 A 
ATOM      6  C   UNL     1       3.293  11.107  -9.577  1.00  0.00    +0.043 A 
ATOM      7  C   UNL     1       2.499  10.324 -12.191  1.00  0.00    +0.032 A 
ATOM      8  C   UNL     1       2.379   7.634  -9.925  1.00  0.00    +0.210 A 
ATOM      9  C   UNL     1       2.880  11.646 -11.918  1.00  0.00    +0.017 A 
ATOM     10  H   UNL     1       3.036   8.586  -8.141  1.00  0.00    +0.170 HD
ENDROOT
BRANCH   5  11
ATOM     11  S   UNL     1       3.755  13.721 -10.276  1.00  0.00    -0.126 SA
BRANCH  11  12
ATOM     12  C   UNL     1       5.424  13.426  -9.599  1.00  0.00    +0.075 C 
BRANCH  12  13
ATOM     13  C   UNL     1       5.445  13.768  -8.110  1.00  0.00    +0.008 C 
ATOM     14  C   UNL     1       4.152  14.450  -7.688  1.00  0.00    +0.005 C 
ENDBRANCH  12  13
ENDBRANCH  11  12
ENDBRANCH   5  11
BRANCH   8  15
ATOM     15  N   UNL     1       2.198   6.378  -9.414  1.00  0.00    -0.261 N 
ATOM     16  C   UNL     1       2.468   6.055  -8.116  1.00  0.00    +0.413 C 
ATOM     17  O   UNL     1       2.896   6.761  -7.218  1.00  0.00    -0.224 OA
ATOM     18  H   UNL     1       1.850   5.627  -9.987  1.00  0.00    +0.176 HD
BRANCH  16  19
ATOM     19  O   UNL     1       2.172   4.732  -7.956  1.00  0.00    -0.453 OA
ATOM     20  C   UNL     1       1.751   4.389  -6.634  1.00  0.00    +0.284 C 
ENDBRANCH  16  19
ENDBRANCH   8  15
TORSDOF 5
ENDMDL
MODEL 3
REMARK VINA RESULT:    -5.487      3.918      6.904
REMARK INTER + INTRA:          -7.797
REMARK INTER:                  -7.139
REMARK INTRA:                  -0.658
REMARK UNBOUND:                -0.707
REMARK SMILES CCCSc1ccc2nc(NC(=O)OC)[nH]c2c1
REMARK SMILES IDX 16 1 9 2 17 3 8 4 5 5 18 6 7 7 10 8 6 9 4 11 3 12 2 13 1 14
REMARK SMILES IDX 11 15 12 16 13 17 14 19 15 20
REMARK H PARENT 16 10 11 18
ROOT
ATOM      1  N   UNL     1       2.394  12.236  -2.002  1.00  0.00    -0.324 N 
ATOM      2  N   UNL     1       3.517  13.198  -0.364  1.00  0.00    -0.213 NA
ATOM      3  C   UNL     1       1.442  12.660  -1.113  1.00  0.00    +0.068 A 
ATOM      4  C   UNL     1       2.175  13.255  -0.094  1.00  0.00    +0.091 A 
ATOM      5  C   UNL     1      -0.621  13.135  -0.006  1.00  0.00    +0.009 A 
ATOM      6  C   UNL     1       0.047  12.574  -1.106  1.00  0.00    +0.043 A 
ATOM      7  C   UNL     1       1.500  13.797   1.007  1.00  0.00    +0.032 A 
ATOM      8  C   UNL     1       3.632  12.581  -1.516  1.00  0.00    +0.210 A 
ATOM      9  C   UNL     1       0.100  13.726   1.041  1.00  0.00    +0.017 A 
ATOM     10  H   UNL     1       2.216  11.751  -2.867  1.00  0.00    +0.170 HD
ENDROOT
BRANCH   5  11
ATOM     11  S   UNL     1      -2.406  13.034   0.036  1.00  0.00    -0.126 SA
BRANCH  11  12
ATOM     12  C   UNL     1      -2.682  11.759  -1.241  1.00  0.00    +0.075 C 
BRANCH  12  13
ATOM     13  C   UNL     1      -3.354  12.388  -2.461  1.00  0.00    +0.008 C 
ATOM     14  C   UNL     1      -2.631  12.000  -3.743  1.00  0.00    +0.005 C 
ENDBRANCH  12  13
ENDBRANCH  11  12
ENDBRANCH   5  11
BRANCH   8  15
ATOM     15  N   UNL     1       4.766  12.275  -2.217  1.00  0.00    -0.261 N 
ATOM     16  C   UNL     1       4.923  11.109  -2.909  1.00  0.00    +0.413 C 
ATOM     17  O   UNL     1       4.148  10.175  -3.031  1.00  0.00    -0.224 OA
ATOM     18  H   UNL     1       5.544  12.911  -2.253  1.00  0.00    +0.176 HD
BRANCH  16  19
ATOM     19  O   UNL     1       6.161  11.142  -3.484  1.00  0.00    -0.453 OA
ATOM     20  C   UNL     1       7.192  11.607  -2.611  1.00  0.00    +0.284 C 
ENDBRANCH  16  19
ENDBRANCH   8  15
TORSDOF 5
ENDMDL
MODEL 4
REMARK VINA RESULT:    -5.365      1.157      1.852
REMARK INTER + INTRA:          -7.640
REMARK INTER:                  -7.270
REMARK INTRA:                  -0.370
REMARK UNBOUND:                -0.707
REMARK SMILES CCCSc1ccc2nc(NC(=O)OC)[nH]c2c1
REMARK SMILES IDX 16 1 9 2 17 3 8 4 5 5 18 6 7 7 10 8 6 9 4 11 3 12 2 13 1 14
REMARK SMILES IDX 11 15 12 16 13 17 14 19 15 20
REMARK H PARENT 16 10 11 18
ROOT
ATOM      1  N   UNL     1       0.012  13.316   0.334  1.00  0.00    -0.324 N 
ATOM      2  N   UNL     1      -0.275  12.297  -1.603  1.00  0.00    -0.213 NA
ATOM      3  C   UNL     1       1.275  13.089  -0.145  1.00  0.00    +0.068 A 
ATOM      4  C   UNL     1       1.065  12.446  -1.358  1.00  0.00    +0.091 A 
ATOM      5  C   UNL     1       3.646  12.992  -0.422  1.00  0.00    +0.009 A 
ATOM      6  C   UNL     1       2.546  13.376   0.362  1.00  0.00    +0.043 A 
ATOM      7  C   UNL     1       2.169  12.052  -2.124  1.00  0.00    +0.032 A 
ATOM      8  C   UNL     1      -0.895  12.826  -0.575  1.00  0.00    +0.210 A 
ATOM      9  C   UNL     1       3.457  12.327  -1.641  1.00  0.00    +0.017 A 
ATOM     10  H   UNL     1      -0.214  13.765   1.206  1.00  0.00    +0.170 HD
ENDROOT
BRANCH   5  11
ATOM     11  S   UNL     1       5.286  13.338   0.203  1.00  0.00    -0.126 SA
BRANCH  11  12
ATOM     12  C   UNL     1       6.161  11.835  -0.351  1.00  0.00    +0.075 C 
BRANCH  12  13
ATOM     13  C   UNL     1       7.459  12.223  -1.056  1.00  0.00    +0.008 C 
ATOM     14  C   UNL     1       7.421  11.832  -2.526  1.00  0.00    +0.005 C 
ENDBRANCH  12  13
ENDBRANCH  11  12
ENDBRANCH   5  11
BRANCH   8  15
ATOM     15  N   UNL     1      -2.239  12.926  -0.341  1.00  0.00    -0.261 N 
ATOM     16  C   UNL     1      -3.054  11.841  -0.200  1.00  0.00    +0.413 C 
ATOM     17  O   UNL     1      -2.775  10.655  -0.253  1.00  0.00    -0.224 OA
ATOM     18  H   UNL     1      -2.689  13.823  -0.260  1.00  0.00    +0.176 HD
BRANCH  16  19
ATOM     19  O   UNL     1      -4.318  12.308   0.023  1.00  0.00    -0.453 OA
ATOM     20  C   UNL     1      -4.743  13.298  -0.916  1.00  0.00    +0.284 C 
ENDBRANCH  16  19
ENDBRANCH   8  15
TORSDOF 5
ENDMDL
MODEL 5
REMARK VINA RESULT:    -5.288      4.453      6.924
REMARK INTER + INTRA:          -7.541
REMARK INTER:                  -6.889
REMARK INTRA:                  -0.652
REMARK UNBOUND:                -0.707
REMARK SMILES CCCSc1ccc2nc(NC(=O)OC)[nH]c2c1
REMARK SMILES IDX 16 1 9 2 17 3 8 4 5 5 18 6 7 7 10 8 6 9 4 11 3 12 2 13 1 14
REMARK SMILES IDX 11 15 12 16 13 17 14 19 15 20
REMARK H PARENT 16 10 11 18
ROOT
ATOM      1  N   UNL     1       2.690  14.525   1.251  1.00  0.00    -0.324 N 
ATOM      2  N   UNL     1       4.475  13.733   0.223  1.00  0.00    -0.213 NA
ATOM      3  C   UNL     1       2.204  13.757   0.226  1.00  0.00    +0.068 A 
ATOM      4  C   UNL     1       3.345  13.276  -0.403  1.00  0.00    +0.091 A 
ATOM      5  C   UNL     1       0.783  12.606  -1.311  1.00  0.00    +0.009 A 
ATOM      6  C   UNL     1       0.907  13.451  -0.196  1.00  0.00    +0.043 A 
ATOM      7  C   UNL     1       3.210  12.447  -1.524  1.00  0.00    +0.032 A 
ATOM      8  C   UNL     1       4.062  14.484   1.217  1.00  0.00    +0.210 A 
ATOM      9  C   UNL     1       1.921  12.123  -1.971  1.00  0.00    +0.017 A 
ATOM     10  H   UNL     1       2.133  15.036   1.917  1.00  0.00    +0.170 HD
ENDROOT
BRANCH   5  11
ATOM     11  S   UNL     1      -0.864  12.203  -1.881  1.00  0.00    -0.126 SA
BRANCH  11  12
ATOM     12  C   UNL     1      -1.856  12.970  -0.555  1.00  0.00    +0.075 C 
BRANCH  12  13
ATOM     13  C   UNL     1      -2.911  11.981  -0.062  1.00  0.00    +0.008 C 
ATOM     14  C   UNL     1      -2.576  10.562  -0.499  1.00  0.00    +0.005 C 
ENDBRANCH  12  13
ENDBRANCH  11  12
ENDBRANCH   5  11
BRANCH   8  15
ATOM     15  N   UNL     1       4.803  15.170   2.140  1.00  0.00    -0.261 N 
ATOM     16  C   UNL     1       4.570  16.474   2.463  1.00  0.00    +0.413 C 
ATOM     17  O   UNL     1       3.723  17.237   2.028  1.00  0.00    -0.224 OA
ATOM     18  H   UNL     1       5.565  14.729   2.629  1.00  0.00    +0.176 HD
BRANCH  16  19
ATOM     19  O   UNL     1       5.486  16.829   3.410  1.00  0.00    -0.453 OA
ATOM     20  C   UNL     1       5.585  15.904   4.495  1.00  0.00    +0.284 C 
ENDBRANCH  16  19
ENDBRANCH   8  15
TORSDOF 5
ENDMDL
MODEL 6
REMARK VINA RESULT:    -5.179      1.771      2.773
REMARK INTER + INTRA:          -7.400
REMARK INTER:                  -6.734
REMARK INTRA:                  -0.666
REMARK UNBOUND:                -0.707
REMARK SMILES CCCSc1ccc2nc(NC(=O)OC)[nH]c2c1
REMARK SMILES IDX 16 1 9 2 17 3 8 4 5 5 18 6 7 7 10 8 6 9 4 11 3 12 2 13 1 14
REMARK SMILES IDX 11 15 12 16 13 17 14 19 15 20
REMARK H PARENT 16 10 11 18
ROOT
ATOM      1  N   UNL     1      -1.883  12.781   0.464  1.00  0.00    -0.324 N 
ATOM      2  N   UNL     1      -2.094  11.935  -1.563  1.00  0.00    -0.213 NA
ATOM      3  C   UNL     1      -0.621  12.803  -0.069  1.00  0.00    +0.068 A 
ATOM      4  C   UNL     1      -0.783  12.264  -1.338  1.00  0.00    +0.091 A 
ATOM      5  C   UNL     1       1.723  13.104  -0.416  1.00  0.00    +0.009 A 
ATOM      6  C   UNL     1       0.612  13.230   0.433  1.00  0.00    +0.043 A 
ATOM      7  C   UNL     1       0.335  12.126  -2.171  1.00  0.00    +0.032 A 
ATOM      8  C   UNL     1      -2.743  12.253  -0.468  1.00  0.00    +0.210 A 
ATOM      9  C   UNL     1       1.585  12.547  -1.695  1.00  0.00    +0.017 A 
ATOM     10  H   UNL     1      -2.137  13.098   1.386  1.00  0.00    +0.170 HD
ENDROOT
BRANCH   5  11
ATOM     11  S   UNL     1       3.317  13.634   0.199  1.00  0.00    -0.126 SA
BRANCH  11  12
ATOM     12  C   UNL     1       4.382  13.115  -1.190  1.00  0.00    +0.075 C 
BRANCH  12  13
ATOM     13  C   UNL     1       5.156  11.856  -0.805  1.00  0.00    +0.008 C 
ATOM     14  C   UNL     1       4.951  10.753  -1.833  1.00  0.00    +0.005 C 
ENDBRANCH  12  13
ENDBRANCH  11  12
ENDBRANCH   5  11
BRANCH   8  15
ATOM     15  N   UNL     1      -4.075  12.119  -0.190  1.00  0.00    -0.261 N 
ATOM     16  C   UNL     1      -4.838  13.134   0.308  1.00  0.00    +0.413 C 
ATOM     17  O   UNL     1      -4.514  14.277   0.589  1.00  0.00    -0.224 OA
ATOM     18  H   UNL     1      -4.556  11.249  -0.347  1.00  0.00    +0.176 HD
BRANCH  16  19
ATOM     19  O   UNL     1      -6.107  12.653   0.459  1.00  0.00    -0.453 OA
ATOM     20  C   UNL     1      -7.067  13.274  -0.399  1.00  0.00    +0.284 C 
ENDBRANCH  16  19
ENDBRANCH   8  15
TORSDOF 5
ENDMDL
MODEL 7
REMARK VINA RESULT:    -5.149      1.860      2.304
REMARK INTER + INTRA:          -7.361
REMARK INTER:                  -6.925
REMARK INTRA:                  -0.436
REMARK UNBOUND:                -0.707
REMARK SMILES CCCSc1ccc2nc(NC(=O)OC)[nH]c2c1
REMARK SMILES IDX 16 1 9 2 17 3 8 4 5 5 18 6 7 7 10 8 6 9 4 11 3 12 2 13 1 14
REMARK SMILES IDX 11 15 12 16 13 17 14 19 15 20
REMARK H PARENT 16 10 11 18
ROOT
ATOM      1  N   UNL     1       1.481  12.116  -2.042  1.00  0.00    -0.324 N 
ATOM      2  N   UNL     1       0.952  13.600  -0.496  1.00  0.00    -0.213 NA
ATOM      3  C   UNL     1       2.659  12.411  -1.406  1.00  0.00    +0.068 A 
ATOM      4  C   UNL     1       2.298  13.345  -0.445  1.00  0.00    +0.091 A 
ATOM      5  C   UNL     1       4.948  12.488  -0.727  1.00  0.00    +0.009 A 
ATOM      6  C   UNL     1       3.970  11.959  -1.585  1.00  0.00    +0.043 A 
ATOM      7  C   UNL     1       3.284  13.880   0.394  1.00  0.00    +0.032 A 
ATOM      8  C   UNL     1       0.476  12.851  -1.463  1.00  0.00    +0.210 A 
ATOM      9  C   UNL     1       4.608  13.445   0.239  1.00  0.00    +0.017 A 
ATOM     10  H   UNL     1       1.372  11.469  -2.807  1.00  0.00    +0.170 HD
ENDROOT
BRANCH   5  11
ATOM     11  S   UNL     1       6.637  11.937  -0.935  1.00  0.00    -0.126 SA
BRANCH  11  12
ATOM     12  C   UNL     1       6.516  11.158  -2.582  1.00  0.00    +0.075 C 
BRANCH  12  13
ATOM     13  C   UNL     1       7.513  11.812  -3.536  1.00  0.00    +0.008 C 
ATOM     14  C   UNL     1       6.815  12.328  -4.786  1.00  0.00    +0.005 C 
ENDBRANCH  12  13
ENDBRANCH  11  12
ENDBRANCH   5  11
BRANCH   8  15
ATOM     15  N   UNL     1      -0.812  12.744  -1.910  1.00  0.00    -0.261 N 
ATOM     16  C   UNL     1      -1.795  12.112  -1.206  1.00  0.00    +0.413 C 
ATOM     17  O   UNL     1      -1.732  11.554  -0.122  1.00  0.00    -0.224 OA
ATOM     18  H   UNL     1      -1.092  13.137  -2.793  1.00  0.00    +0.176 HD
BRANCH  16  19
ATOM     19  O   UNL     1      -2.942  12.198  -1.942  1.00  0.00    -0.453 OA
ATOM     20  C   UNL     1      -2.762  11.906  -3.329  1.00  0.00    +0.284 C 
ENDBRANCH  16  19
ENDBRANCH   8  15
TORSDOF 5
ENDMDL
MODEL 8
REMARK VINA RESULT:    -5.092      3.044      4.048
REMARK INTER + INTRA:          -7.287
REMARK INTER:                  -6.745
REMARK INTRA:                  -0.541
REMARK UNBOUND:                -0.707
REMARK SMILES CCCSc1ccc2nc(NC(=O)OC)[nH]c2c1
REMARK SMILES IDX 16 1 9 2 17 3 8 4 5 5 18 6 7 7 10 8 6 9 4 11 3 12 2 13 1 14
REMARK SMILES IDX 11 15 12 16 13 17 14 19 15 20
REMARK H PARENT 16 10 11 18
ROOT
ATOM      1  N   UNL     1       1.444  13.244  -0.562  1.00  0.00    -0.324 N 
ATOM      2  N   UNL     1       2.638  12.038  -1.974  1.00  0.00    -0.213 NA
ATOM      3  C   UNL     1       2.748  13.434  -0.186  1.00  0.00    +0.068 A 
ATOM      4  C   UNL     1       3.473  12.663  -1.085  1.00  0.00    +0.091 A 
ATOM      5  C   UNL     1       4.741  14.147   0.922  1.00  0.00    +0.009 A 
ATOM      6  C   UNL     1       3.340  14.185   0.834  1.00  0.00    +0.043 A 
ATOM      7  C   UNL     1       4.869  12.618  -0.978  1.00  0.00    +0.032 A 
ATOM      8  C   UNL     1       1.420  12.398  -1.645  1.00  0.00    +0.210 A 
ATOM      9  C   UNL     1       5.491  13.363   0.035  1.00  0.00    +0.017 A 
ATOM     10  H   UNL     1       0.639  13.655  -0.119  1.00  0.00    +0.170 HD
ENDROOT
BRANCH   5  11
ATOM     11  S   UNL     1       5.527  15.091   2.222  1.00  0.00    -0.126 SA
BRANCH  11  12
ATOM     12  C   UNL     1       6.912  15.826   1.286  1.00  0.00    +0.075 C 
BRANCH  12  13
ATOM     13  C   UNL     1       6.464  17.141   0.651  1.00  0.00    +0.008 C 
ATOM     14  C   UNL     1       7.568  18.186   0.722  1.00  0.00    +0.005 C 
ENDBRANCH  12  13
ENDBRANCH  11  12
ENDBRANCH   5  11
BRANCH   8  15
ATOM     15  N   UNL     1       0.233  12.043  -2.225  1.00  0.00    -0.261 N 
ATOM     16  C   UNL     1      -0.945  11.987  -1.539  1.00  0.00    +0.413 C 
ATOM     17  O   UNL     1      -1.163  12.220  -0.361  1.00  0.00    -0.224 OA
ATOM     18  H   UNL     1       0.181  11.806  -3.202  1.00  0.00    +0.176 HD
BRANCH  16  19
ATOM     19  O   UNL     1      -1.912  11.605  -2.423  1.00  0.00    -0.453 OA
ATOM     20  C   UNL     1      -3.207  12.132  -2.127  1.00  0.00    +0.284 C 
ENDBRANCH  16  19
ENDBRANCH   8  15
TORSDOF 5
ENDMDL
MODEL 9
REMARK VINA RESULT:    -5.050      4.108      7.073
REMARK INTER + INTRA:          -7.232
REMARK INTER:                  -6.565
REMARK INTRA:                  -0.667
REMARK UNBOUND:                -0.707
REMARK SMILES CCCSc1ccc2nc(NC(=O)OC)[nH]c2c1
REMARK SMILES IDX 16 1 9 2 17 3 8 4 5 5 18 6 7 7 10 8 6 9 4 11 3 12 2 13 1 14
REMARK SMILES IDX 11 15 12 16 13 17 14 19 15 20
REMARK H PARENT 16 10 11 18
ROOT
ATOM      1  N   UNL     1       2.884  11.931  -1.680  1.00  0.00    -0.324 N 
ATOM      2  N   UNL     1       3.613  13.686  -2.804  1.00  0.00    -0.213 NA
ATOM      3  C   UNL     1       1.755  12.576  -2.113  1.00  0.00    +0.068 A 
ATOM      4  C   UNL     1       2.242  13.673  -2.811  1.00  0.00    +0.091 A 
ATOM      5  C   UNL     1      -0.506  13.205  -2.556  1.00  0.00    +0.009 A 
ATOM      6  C   UNL     1       0.392  12.307  -1.957  1.00  0.00    +0.043 A 
ATOM      7  C   UNL     1       1.337  14.572  -3.390  1.00  0.00    +0.032 A 
ATOM      8  C   UNL     1       3.983  12.630  -2.119  1.00  0.00    +0.210 A 
ATOM      9  C   UNL     1      -0.037  14.328  -3.251  1.00  0.00    +0.017 A 
ATOM     10  H   UNL     1       2.905  11.087  -1.131  1.00  0.00    +0.170 HD
ENDROOT
BRANCH   5  11
ATOM     11  S   UNL     1      -2.257  12.893  -2.368  1.00  0.00    -0.126 SA
BRANCH  11  12
ATOM     12  C   UNL     1      -2.216  11.137  -1.871  1.00  0.00    +0.075 C 
BRANCH  12  13
ATOM     13  C   UNL     1      -2.649  11.003  -0.413  1.00  0.00    +0.008 C 
ATOM     14  C   UNL     1      -2.933  12.366   0.201  1.00  0.00    +0.005 C 
ENDBRANCH  12  13
ENDBRANCH  11  12
ENDBRANCH   5  11
BRANCH   8  15
ATOM     15  N   UNL     1       5.247  12.197  -1.824  1.00  0.00    -0.261 N 
ATOM     16  C   UNL     1       5.710  10.960  -2.166  1.00  0.00    +0.413 C 
ATOM     17  O   UNL     1       5.137  10.058  -2.754  1.00  0.00    -0.224 OA
ATOM     18  H   UNL     1       5.899  12.788  -1.336  1.00  0.00    +0.176 HD
BRANCH  16  19
ATOM     19  O   UNL     1       6.998  10.872  -1.724  1.00  0.00    -0.453 OA
ATOM     20  C   UNL     1       7.427  12.002  -0.960  1.00  0.00    +0.284 C 
ENDBRANCH  16  19
ENDBRANCH   8  15
TORSDOF 5
ENDMDL
