MODEL 1
REMARK VINA RESULT:    -5.493      0.000      0.000
REMARK INTER + INTRA:          -7.672
REMARK INTER:                  -7.098
REMARK INTRA:                  -0.574
REMARK UNBOUND:                -0.574
REMARK SMILES CCCSc1ccc2nc(NC(=O)OC)[nH]c2c1
REMARK SMILES IDX 16 1 9 2 17 3 8 4 5 5 18 6 7 7 10 8 6 9 4 11 3 12 2 13 1 14
REMARK SMILES IDX 11 15 12 16 13 17 14 19 15 20
REMARK H PARENT 16 10 11 18
ROOT
ATOM      1  N   UNL     1     -15.955  -8.609  17.618  1.00  0.00    -0.324 N 
ATOM      2  N   UNL     1     -16.394  -8.825  19.770  1.00  0.00    -0.213 NA
ATOM      3  C   UNL     1     -15.965  -9.959  17.850  1.00  0.00    +0.068 A 
ATOM      4  C   UNL     1     -16.239 -10.065  19.207  1.00  0.00    +0.091 A 
ATOM      5  C   UNL     1     -15.853 -12.334  17.613  1.00  0.00    +0.009 A 
ATOM      6  C   UNL     1     -15.761 -11.065  17.019  1.00  0.00    +0.043 A 
ATOM      7  C   UNL     1     -16.312 -11.335  19.793  1.00  0.00    +0.032 A 
ATOM      8  C   UNL     1     -16.220  -7.960  18.799  1.00  0.00    +0.210 A 
ATOM      9  C   UNL     1     -16.111 -12.463  18.984  1.00  0.00    +0.017 A 
ATOM     10  H   UNL     1     -15.781  -8.166  16.729  1.00  0.00    +0.170 HD
ENDROOT
BRANCH   5  11
ATOM     11  S   UNL     1     -15.588 -13.768  16.578  1.00  0.00    -0.126 SA
BRANCH  11  12
ATOM     12  C   UNL     1     -15.527 -15.073  17.853  1.00  0.00    +0.075 C 
BRANCH  12  13
ATOM     13  C   UNL     1     -14.079 -15.497  18.089  1.00  0.00    +0.008 C 
ATOM     14  C   UNL     1     -14.002 -16.659  19.068  1.00  0.00    +0.005 C 
ENDBRANCH  12  13
ENDBRANCH  11  12
ENDBRANCH   5  11
BRANCH   8  15
ATOM     15  N   UNL     1     -16.272  -6.594  18.847  1.00  0.00    -0.261 N 
ATOM     16  C   UNL     1     -15.271  -5.793  18.380  1.00  0.00    +0.413 C 
ATOM     17  O   UNL     1     -14.208  -6.105  17.869  1.00  0.00    -0.224 OA
ATOM     18  H   UNL     1     -17.068  -6.116  19.235  1.00  0.00    +0.176 HD
BRANCH  16  19
ATOM     19  O   UNL     1     -15.657  -4.499  18.584  1.00  0.00    -0.453 OA
ATOM     20  C   UNL     1     -15.466  -3.653  17.448  1.00  0.00    +0.284 C 
ENDBRANCH  16  19
ENDBRANCH   8  15
TORSDOF 5
ENDMDL
MODEL 2
REMARK VINA RESULT:    -5.469      4.651      7.323
REMARK INTER + INTRA:          -7.642
REMARK INTER:                  -6.963
REMARK INTRA:                  -0.679
REMARK UNBOUND:                -0.574
REMARK SMILES CCCSc1ccc2nc(NC(=O)OC)[nH]c2c1
REMARK SMILES IDX 16 1 9 2 17 3 8 4 5 5 18 6 7 7 10 8 6 9 4 11 3 12 2 13 1 14
REMARK SMILES IDX 11 15 12 16 13 17 14 19 15 20
REMARK H PARENT 16 10 11 18
ROOT
ATOM      1  N   UNL     1     -15.761 -12.470  16.563  1.00  0.00    -0.324 N 
ATOM      2  N   UNL     1     -16.046 -13.708  18.368  1.00  0.00    -0.213 NA
ATOM      3  C   UNL     1     -15.927 -11.578  17.589  1.00  0.00    +0.068 A 
ATOM      4  C   UNL     1     -16.107 -12.381  18.707  1.00  0.00    +0.091 A 
ATOM      5  C   UNL     1     -16.137  -9.588  18.895  1.00  0.00    +0.009 A 
ATOM      6  C   UNL     1     -15.940 -10.181  17.637  1.00  0.00    +0.043 A 
ATOM      7  C   UNL     1     -16.321 -11.780  19.954  1.00  0.00    +0.032 A 
ATOM      8  C   UNL     1     -15.837 -13.743  17.073  1.00  0.00    +0.210 A 
ATOM      9  C   UNL     1     -16.338 -10.380  20.033  1.00  0.00    +0.017 A 
ATOM     10  H   UNL     1     -15.609 -12.232  15.596  1.00  0.00    +0.170 HD
ENDROOT
BRANCH   5  11
ATOM     11  S   UNL     1     -16.167  -7.802  18.988  1.00  0.00    -0.126 SA
BRANCH  11  12
ATOM     12  C   UNL     1     -16.637  -7.583  20.738  1.00  0.00    +0.075 C 
BRANCH  12  13
ATOM     13  C   UNL     1     -15.428  -7.106  21.541  1.00  0.00    +0.008 C 
ATOM     14  C   UNL     1     -15.147  -8.038  22.711  1.00  0.00    +0.005 C 
ENDBRANCH  12  13
ENDBRANCH  11  12
ENDBRANCH   5  11
BRANCH   8  15
ATOM     15  N   UNL     1     -15.700 -14.831  16.256  1.00  0.00    -0.261 N 
ATOM     16  C   UNL     1     -16.393 -14.980  15.090  1.00  0.00    +0.413 C 
ATOM     17  O   UNL     1     -17.214 -14.234  14.581  1.00  0.00    -0.224 OA
ATOM     18  H   UNL     1     -15.067 -15.580  16.485  1.00  0.00    +0.176 HD
BRANCH  16  19
ATOM     19  O   UNL     1     -16.010 -16.167  14.537  1.00  0.00    -0.453 OA
ATOM     20  C   UNL     1     -14.608 -16.426  14.637  1.00  0.00    +0.284 C 
ENDBRANCH  16  19
ENDBRANCH   8  15
TORSDOF 5
ENDMDL
MODEL 3
REMARK VINA RESULT:    -5.429      9.250     10.910
REMARK INTER + INTRA:          -7.590
REMARK INTER:                  -7.058
REMARK INTRA:                  -0.533
REMARK UNBOUND:                -0.574
REMARK SMILES CCCSc1ccc2nc(NC(=O)OC)[nH]c2c1
REMARK SMILES IDX 16 1 9 2 17 3 8 4 5 5 18 6 7 7 10 8 6 9 4 11 3 12 2 13 1 14
REMARK SMILES IDX 11 15 12 16 13 17 14 19 15 20
REMARK H PARENT 16 10 11 18
ROOT
ATOM      1  N   UNL     1     -13.115 -17.672  22.636  1.00  0.00    -0.324 N 
ATOM      2  N   UNL     1     -11.221 -16.645  22.155  1.00  0.00    -0.213 NA
ATOM      3  C   UNL     1     -12.686 -17.132  23.820  1.00  0.00    +0.068 A 
ATOM      4  C   UNL     1     -11.496 -16.498  23.489  1.00  0.00    +0.091 A 
ATOM      5  C   UNL     1     -12.491 -16.467  26.106  1.00  0.00    +0.009 A 
ATOM      6  C   UNL     1     -13.216 -17.146  25.114  1.00  0.00    +0.043 A 
ATOM      7  C   UNL     1     -10.771 -15.839  24.490  1.00  0.00    +0.032 A 
ATOM      8  C   UNL     1     -12.206 -17.354  21.656  1.00  0.00    +0.210 A 
ATOM      9  C   UNL     1     -11.279 -15.835  25.798  1.00  0.00    +0.017 A 
ATOM     10  H   UNL     1     -13.956 -18.212  22.506  1.00  0.00    +0.170 HD
ENDROOT
BRANCH   5  11
ATOM     11  S   UNL     1     -13.138 -16.473  27.773  1.00  0.00    -0.126 SA
BRANCH  11  12
ATOM     12  C   UNL     1     -13.789 -14.770  27.867  1.00  0.00    +0.075 C 
BRANCH  12  13
ATOM     13  C   UNL     1     -15.237 -14.797  28.354  1.00  0.00    +0.008 C 
ATOM     14  C   UNL     1     -15.926 -13.466  28.094  1.00  0.00    +0.005 C 
ENDBRANCH  12  13
ENDBRANCH  11  12
ENDBRANCH   5  11
BRANCH   8  15
ATOM     15  N   UNL     1     -12.396 -17.771  20.367  1.00  0.00    -0.261 N 
ATOM     16  C   UNL     1     -13.577 -17.619  19.701  1.00  0.00    +0.413 C 
ATOM     17  O   UNL     1     -14.623 -17.123  20.088  1.00  0.00    -0.224 OA
ATOM     18  H   UNL     1     -11.657 -18.214  19.848  1.00  0.00    +0.176 HD
BRANCH  16  19
ATOM     19  O   UNL     1     -13.409 -18.140  18.451  1.00  0.00    -0.453 OA
ATOM     20  C   UNL     1     -12.042 -18.357  18.093  1.00  0.00    +0.284 C 
ENDBRANCH  16  19
ENDBRANCH   8  15
TORSDOF 5
ENDMDL
MODEL 4
REMARK VINA RESULT:    -5.326      6.318      6.997
REMARK INTER + INTRA:          -7.457
REMARK INTER:                  -6.949
REMARK INTRA:                  -0.508
REMARK UNBOUND:                -0.574
REMARK SMILES CCCSc1ccc2nc(NC(=O)OC)[nH]c2c1
REMARK SMILES IDX 16 1 9 2 17 3 8 4 5 5 18 6 7 7 10 8 6 9 4 11 3 12 2 13 1 14
REMARK SMILES IDX 11 15 12 16 13 17 14 19 15 20
REMARK H PARENT 16 10 11 18
ROOT
ATOM      1  N   UNL     1     -20.028 -10.682  12.934  1.00  0.00    -0.324 N 
ATOM      2  N   UNL     1     -17.999 -10.434  13.767  1.00  0.00    -0.213 NA
ATOM      3  C   UNL     1     -19.594 -11.952  13.212  1.00  0.00    +0.068 A 
ATOM      4  C   UNL     1     -18.319 -11.766  13.729  1.00  0.00    +0.091 A 
ATOM      5  C   UNL     1     -19.430 -14.322  13.464  1.00  0.00    +0.009 A 
ATOM      6  C   UNL     1     -20.185 -13.209  13.057  1.00  0.00    +0.043 A 
ATOM      7  C   UNL     1     -17.568 -12.883  14.116  1.00  0.00    +0.032 A 
ATOM      8  C   UNL     1     -19.039  -9.795  13.285  1.00  0.00    +0.210 A 
ATOM      9  C   UNL     1     -18.135 -14.158  13.973  1.00  0.00    +0.017 A 
ATOM     10  H   UNL     1     -20.922 -10.440  12.537  1.00  0.00    +0.170 HD
ENDROOT
BRANCH   5  11
ATOM     11  S   UNL     1     -20.155 -15.946  13.271  1.00  0.00    -0.126 SA
BRANCH  11  12
ATOM     12  C   UNL     1     -19.975 -16.162  11.467  1.00  0.00    +0.075 C 
BRANCH  12  13
ATOM     13  C   UNL     1     -20.247 -17.617  11.092  1.00  0.00    +0.008 C 
ATOM     14  C   UNL     1     -20.538 -18.455  12.329  1.00  0.00    +0.005 C 
ENDBRANCH  12  13
ENDBRANCH  11  12
ENDBRANCH   5  11
BRANCH   8  15
ATOM     15  N   UNL     1     -19.216  -8.450  13.112  1.00  0.00    -0.261 N 
ATOM     16  C   UNL     1     -20.244  -7.755  13.678  1.00  0.00    +0.413 C 
ATOM     17  O   UNL     1     -21.147  -8.158  14.393  1.00  0.00    -0.224 OA
ATOM     18  H   UNL     1     -18.580  -7.908  12.551  1.00  0.00    +0.176 HD
BRANCH  16  19
ATOM     19  O   UNL     1     -20.110  -6.450  13.300  1.00  0.00    -0.453 OA
ATOM     20  C   UNL     1     -19.020  -6.216  12.405  1.00  0.00    +0.284 C 
ENDBRANCH  16  19
ENDBRANCH   8  15
TORSDOF 5
ENDMDL
MODEL 5
REMARK VINA RESULT:    -5.298      6.891      8.429
REMARK INTER + INTRA:          -7.420
REMARK INTER:                  -6.691
REMARK INTRA:                  -0.729
REMARK UNBOUND:                -0.574
REMARK SMILES CCCSc1ccc2nc(NC(=O)OC)[nH]c2c1
REMARK SMILES IDX 16 1 9 2 17 3 8 4 5 5 18 6 7 7 10 8 6 9 4 11 3 12 2 13 1 14
REMARK SMILES IDX 11 15 12 16 13 17 14 19 15 20
REMARK H PARENT 16 10 11 18
ROOT
ATOM      1  N   UNL     1     -14.341  -9.331  25.614  1.00  0.00    -0.324 N 
ATOM      2  N   UNL     1     -12.797 -10.866  25.250  1.00  0.00    -0.213 NA
ATOM      3  C   UNL     1     -14.150  -9.337  24.257  1.00  0.00    +0.068 A 
ATOM      4  C   UNL     1     -13.176 -10.305  24.058  1.00  0.00    +0.091 A 
ATOM      5  C   UNL     1     -14.280  -8.881  21.915  1.00  0.00    +0.009 A 
ATOM      6  C   UNL     1     -14.724  -8.599  23.217  1.00  0.00    +0.043 A 
ATOM      7  C   UNL     1     -12.726 -10.567  22.758  1.00  0.00    +0.032 A 
ATOM      8  C   UNL     1     -13.508 -10.268  26.176  1.00  0.00    +0.210 A 
ATOM      9  C   UNL     1     -13.285  -9.843  21.694  1.00  0.00    +0.017 A 
ATOM     10  H   UNL     1     -14.982  -8.738  26.115  1.00  0.00    +0.170 HD
ENDROOT
BRANCH   5  11
ATOM     11  S   UNL     1     -14.989  -7.949  20.564  1.00  0.00    -0.126 SA
BRANCH  11  12
ATOM     12  C   UNL     1     -14.887  -9.193  19.232  1.00  0.00    +0.075 C 
BRANCH  12  13
ATOM     13  C   UNL     1     -16.238  -9.888  19.071  1.00  0.00    +0.008 C 
ATOM     14  C   UNL     1     -16.242 -11.242  19.765  1.00  0.00    +0.005 C 
ENDBRANCH  12  13
ENDBRANCH  11  12
ENDBRANCH   5  11
BRANCH   8  15
ATOM     15  N   UNL     1     -13.500 -10.471  27.529  1.00  0.00    -0.261 N 
ATOM     16  C   UNL     1     -14.630 -10.714  28.253  1.00  0.00    +0.413 C 
ATOM     17  O   UNL     1     -15.787 -10.791  27.875  1.00  0.00    -0.224 OA
ATOM     18  H   UNL     1     -12.642 -10.450  28.054  1.00  0.00    +0.176 HD
BRANCH  16  19
ATOM     19  O   UNL     1     -14.253 -10.868  29.556  1.00  0.00    -0.453 OA
ATOM     20  C   UNL     1     -13.860 -12.201  29.891  1.00  0.00    +0.284 C 
ENDBRANCH  16  19
ENDBRANCH   8  15
TORSDOF 5
ENDMDL
MODEL 6
REMARK VINA RESULT:    -5.258      5.652      7.709
REMARK INTER + INTRA:          -7.369
REMARK INTER:                  -6.817
REMARK INTRA:                  -0.553
REMARK UNBOUND:                -0.574
REMARK SMILES CCCSc1ccc2nc(NC(=O)OC)[nH]c2c1
REMARK SMILES IDX 16 1 9 2 17 3 8 4 5 5 18 6 7 7 10 8 6 9 4 11 3 12 2 13 1 14
REMARK SMILES IDX 11 15 12 16 13 17 14 19 15 20
REMARK H PARENT 16 10 11 18
ROOT
ATOM      1  N   UNL     1     -13.844  -8.210  22.667  1.00  0.00    -0.324 N 
ATOM      2  N   UNL     1     -16.004  -8.193  23.122  1.00  0.00    -0.213 NA
ATOM      3  C   UNL     1     -14.461  -7.907  21.481  1.00  0.00    +0.068 A 
ATOM      4  C   UNL     1     -15.813  -7.907  21.795  1.00  0.00    +0.091 A 
ATOM      5  C   UNL     1     -14.916  -7.361  19.200  1.00  0.00    +0.009 A 
ATOM      6  C   UNL     1     -13.970  -7.645  20.199  1.00  0.00    +0.043 A 
ATOM      7  C   UNL     1     -16.749  -7.639  20.789  1.00  0.00    +0.032 A 
ATOM      8  C   UNL     1     -14.809  -8.373  23.632  1.00  0.00    +0.210 A 
ATOM      9  C   UNL     1     -16.286  -7.372  19.492  1.00  0.00    +0.017 A 
ATOM     10  H   UNL     1     -12.851  -8.300  22.807  1.00  0.00    +0.170 HD
ENDROOT
BRANCH   5  11
ATOM     11  S   UNL     1     -14.320  -7.030  17.547  1.00  0.00    -0.126 SA
BRANCH  11  12
ATOM     12  C   UNL     1     -15.432  -5.660  17.077  1.00  0.00    +0.075 C 
BRANCH  12  13
ATOM     13  C   UNL     1     -15.107  -4.423  17.912  1.00  0.00    +0.008 C 
ATOM     14  C   UNL     1     -15.434  -3.147  17.149  1.00  0.00    +0.005 C 
ENDBRANCH  12  13
ENDBRANCH  11  12
ENDBRANCH   5  11
BRANCH   8  15
ATOM     15  N   UNL     1     -14.462  -8.681  24.919  1.00  0.00    -0.261 N 
ATOM     16  C   UNL     1     -13.790  -9.819  25.258  1.00  0.00    +0.413 C 
ATOM     17  O   UNL     1     -13.396 -10.725  24.541  1.00  0.00    -0.224 OA
ATOM     18  H   UNL     1     -14.691  -8.066  25.682  1.00  0.00    +0.176 HD
BRANCH  16  19
ATOM     19  O   UNL     1     -13.611  -9.798  26.611  1.00  0.00    -0.453 OA
ATOM     20  C   UNL     1     -13.441 -11.092  27.192  1.00  0.00    +0.284 C 
ENDBRANCH  16  19
ENDBRANCH   8  15
TORSDOF 5
ENDMDL
MODEL 7
REMARK VINA RESULT:    -5.252      4.865      7.529
REMARK INTER + INTRA:          -7.361
REMARK INTER:                  -6.794
REMARK INTRA:                  -0.567
REMARK UNBOUND:                -0.574
REMARK SMILES CCCSc1ccc2nc(NC(=O)OC)[nH]c2c1
REMARK SMILES IDX 16 1 9 2 17 3 8 4 5 5 18 6 7 7 10 8 6 9 4 11 3 12 2 13 1 14
REMARK SMILES IDX 11 15 12 16 13 17 14 19 15 20
REMARK H PARENT 16 10 11 18
ROOT
ATOM      1  N   UNL     1     -15.281  -6.667  20.865  1.00  0.00    -0.324 N 
ATOM      2  N   UNL     1     -16.127  -8.610  20.248  1.00  0.00    -0.213 NA
ATOM      3  C   UNL     1     -15.439  -6.577  19.507  1.00  0.00    +0.068 A 
ATOM      4  C   UNL     1     -15.967  -7.810  19.147  1.00  0.00    +0.091 A 
ATOM      5  C   UNL     1     -15.471  -5.820  17.241  1.00  0.00    +0.009 A 
ATOM      6  C   UNL     1     -15.172  -5.558  18.588  1.00  0.00    +0.043 A 
ATOM      7  C   UNL     1     -16.247  -8.068  17.799  1.00  0.00    +0.032 A 
ATOM      8  C   UNL     1     -15.708  -7.907  21.274  1.00  0.00    +0.210 A 
ATOM      9  C   UNL     1     -15.989  -7.064  16.854  1.00  0.00    +0.017 A 
ATOM     10  H   UNL     1     -14.911  -5.946  21.463  1.00  0.00    +0.170 HD
ENDROOT
BRANCH   5  11
ATOM     11  S   UNL     1     -15.133  -4.540  16.039  1.00  0.00    -0.126 SA
BRANCH  11  12
ATOM     12  C   UNL     1     -15.252  -3.063  17.106  1.00  0.00    +0.075 C 
BRANCH  12  13
ATOM     13  C   UNL     1     -14.100  -2.109  16.797  1.00  0.00    +0.008 C 
ATOM     14  C   UNL     1     -13.449  -2.452  15.465  1.00  0.00    +0.005 C 
ENDBRANCH  12  13
ENDBRANCH  11  12
ENDBRANCH   5  11
BRANCH   8  15
ATOM     15  N   UNL     1     -15.661  -8.260  22.594  1.00  0.00    -0.261 N 
ATOM     16  C   UNL     1     -14.514  -8.233  23.332  1.00  0.00    +0.413 C 
ATOM     17  O   UNL     1     -13.385  -7.918  22.993  1.00  0.00    -0.224 OA
ATOM     18  H   UNL     1     -16.488  -8.557  23.085  1.00  0.00    +0.176 HD
BRANCH  16  19
ATOM     19  O   UNL     1     -14.833  -8.640  24.596  1.00  0.00    -0.453 OA
ATOM     20  C   UNL     1     -13.767  -9.306  25.276  1.00  0.00    +0.284 C 
ENDBRANCH  16  19
ENDBRANCH   8  15
TORSDOF 5
ENDMDL
MODEL 8
REMARK VINA RESULT:    -5.248      6.178      7.151
REMARK INTER + INTRA:          -7.356
REMARK INTER:                  -6.818
REMARK INTRA:                  -0.538
REMARK UNBOUND:                -0.574
REMARK SMILES CCCSc1ccc2nc(NC(=O)OC)[nH]c2c1
REMARK SMILES IDX 16 1 9 2 17 3 8 4 5 5 18 6 7 7 10 8 6 9 4 11 3 12 2 13 1 14
REMARK SMILES IDX 11 15 12 16 13 17 14 19 15 20
REMARK H PARENT 16 10 11 18
ROOT
ATOM      1  N   UNL     1     -14.643  -8.995  22.703  1.00  0.00    -0.324 N 
ATOM      2  N   UNL     1     -13.783  -7.033  23.237  1.00  0.00    -0.213 NA
ATOM      3  C   UNL     1     -13.943  -9.211  23.861  1.00  0.00    +0.068 A 
ATOM      4  C   UNL     1     -13.412  -7.966  24.170  1.00  0.00    +0.091 A 
ATOM      5  C   UNL     1     -12.944 -10.198  25.793  1.00  0.00    +0.009 A 
ATOM      6  C   UNL     1     -13.731 -10.352  24.640  1.00  0.00    +0.043 A 
ATOM      7  C   UNL     1     -12.614  -7.827  25.313  1.00  0.00    +0.032 A 
ATOM      8  C   UNL     1     -14.524  -7.669  22.361  1.00  0.00    +0.210 A 
ATOM      9  C   UNL     1     -12.384  -8.955  26.114  1.00  0.00    +0.017 A 
ATOM     10  H   UNL     1     -15.158  -9.691  22.188  1.00  0.00    +0.170 HD
ENDROOT
BRANCH   5  11
ATOM     11  S   UNL     1     -12.646 -11.642  26.806  1.00  0.00    -0.126 SA
BRANCH  11  12
ATOM     12  C   UNL     1     -14.157 -11.627  27.831  1.00  0.00    +0.075 C 
BRANCH  12  13
ATOM     13  C   UNL     1     -14.763 -13.028  27.876  1.00  0.00    +0.008 C 
ATOM     14  C   UNL     1     -16.221 -12.979  28.311  1.00  0.00    +0.005 C 
ENDBRANCH  12  13
ENDBRANCH  11  12
ENDBRANCH   5  11
BRANCH   8  15
ATOM     15  N   UNL     1     -15.134  -7.182  21.238  1.00  0.00    -0.261 N 
ATOM     16  C   UNL     1     -16.368  -7.592  20.822  1.00  0.00    +0.413 C 
ATOM     17  O   UNL     1     -17.118  -8.413  21.325  1.00  0.00    -0.224 OA
ATOM     18  H   UNL     1     -14.689  -6.487  20.663  1.00  0.00    +0.176 HD
BRANCH  16  19
ATOM     19  O   UNL     1     -16.662  -6.902  19.682  1.00  0.00    -0.453 OA
ATOM     20  C   UNL     1     -15.607  -6.900  18.718  1.00  0.00    +0.284 C 
ENDBRANCH  16  19
ENDBRANCH   8  15
TORSDOF 5
ENDMDL
MODEL 9
REMARK VINA RESULT:    -5.233      4.808      6.265
REMARK INTER + INTRA:          -7.336
REMARK INTER:                  -6.555
REMARK INTRA:                  -0.781
REMARK UNBOUND:                -0.574
REMARK SMILES CCCSc1ccc2nc(NC(=O)OC)[nH]c2c1
REMARK SMILES IDX 16 1 9 2 17 3 8 4 5 5 18 6 7 7 10 8 6 9 4 11 3 12 2 13 1 14
REMARK SMILES IDX 11 15 12 16 13 17 14 19 15 20
REMARK H PARENT 16 10 11 18
ROOT
ATOM      1  N   UNL     1     -13.976  -8.868  22.654  1.00  0.00    -0.324 N 
ATOM      2  N   UNL     1     -15.917  -7.988  23.226  1.00  0.00    -0.213 NA
ATOM      3  C   UNL     1     -14.609  -8.593  21.470  1.00  0.00    +0.068 A 
ATOM      4  C   UNL     1     -15.825  -8.045  21.859  1.00  0.00    +0.091 A 
ATOM      5  C   UNL     1     -15.161  -8.360  19.158  1.00  0.00    +0.009 A 
ATOM      6  C   UNL     1     -14.240  -8.772  20.134  1.00  0.00    +0.043 A 
ATOM      7  C   UNL     1     -16.744  -7.653  20.878  1.00  0.00    +0.032 A 
ATOM      8  C   UNL     1     -14.796  -8.487  23.688  1.00  0.00    +0.210 A 
ATOM      9  C   UNL     1     -16.400  -7.820  19.528  1.00  0.00    +0.017 A 
ATOM     10  H   UNL     1     -13.062  -9.283  22.749  1.00  0.00    +0.170 HD
ENDROOT
BRANCH   5  11
ATOM     11  S   UNL     1     -14.722  -8.584  17.439  1.00  0.00    -0.126 SA
BRANCH  11  12
ATOM     12  C   UNL     1     -14.637 -10.406  17.367  1.00  0.00    +0.075 C 
BRANCH  12  13
ATOM     13  C   UNL     1     -16.013 -10.999  17.667  1.00  0.00    +0.008 C 
ATOM     14  C   UNL     1     -15.962 -11.906  18.887  1.00  0.00    +0.005 C 
ENDBRANCH  12  13
ENDBRANCH  11  12
ENDBRANCH   5  11
BRANCH   8  15
ATOM     15  N   UNL     1     -14.400  -8.651  24.987  1.00  0.00    -0.261 N 
ATOM     16  C   UNL     1     -13.701  -9.739  25.422  1.00  0.00    +0.413 C 
ATOM     17  O   UNL     1     -13.319 -10.712  24.793  1.00  0.00    -0.224 OA
ATOM     18  H   UNL     1     -14.612  -7.960  25.688  1.00  0.00    +0.176 HD
BRANCH  16  19
ATOM     19  O   UNL     1     -13.476  -9.570  26.758  1.00  0.00    -0.453 OA
ATOM     20  C   UNL     1     -13.745 -10.735  27.542  1.00  0.00    +0.284 C 
ENDBRANCH  16  19
ENDBRANCH   8  15
TORSDOF 5
ENDMDL
