MODEL 1
REMARK VINA RESULT:    -7.098      0.000      0.000
REMARK INTER + INTRA:          -9.780
REMARK INTER:                  -9.173
REMARK INTRA:                  -0.607
REMARK UNBOUND:                -0.607
REMARK SMILES CCCSc1ccc2nc(NC(=O)OC)[nH]c2c1
REMARK SMILES IDX 16 1 9 2 17 3 8 4 5 5 18 6 7 7 10 8 6 9 4 11 3 12 2 13 1 14
REMARK SMILES IDX 11 15 12 16 13 17 14 19 15 20
REMARK H PARENT 16 10 11 18
ROOT
ATOM      1  N   UNL     1     -30.652  13.621 -28.517  1.00  0.00    -0.324 N 
ATOM      2  N   UNL     1     -29.461  12.458 -29.966  1.00  0.00    -0.213 NA
ATOM      3  C   UNL     1     -29.365  14.066 -28.365  1.00  0.00    +0.068 A 
ATOM      4  C   UNL     1     -28.640  13.317 -29.283  1.00  0.00    +0.091 A 
ATOM      5  C   UNL     1     -27.403  15.227 -27.652  1.00  0.00    +0.009 A 
ATOM      6  C   UNL     1     -28.787  15.026 -27.529  1.00  0.00    +0.043 A 
ATOM      7  C   UNL     1     -27.257  13.514 -29.386  1.00  0.00    +0.032 A 
ATOM      8  C   UNL     1     -30.669  12.654 -29.492  1.00  0.00    +0.210 A 
ATOM      9  C   UNL     1     -26.649  14.470 -28.560  1.00  0.00    +0.017 A 
ATOM     10  H   UNL     1     -31.452  13.948 -27.999  1.00  0.00    +0.170 HD
ENDROOT
BRANCH   5  11
ATOM     11  S   UNL     1     -26.631  16.442 -26.590  1.00  0.00    -0.126 SA
BRANCH  11  12
ATOM     12  C   UNL     1     -26.778  15.594 -24.980  1.00  0.00    +0.075 C 
BRANCH  12  13
ATOM     13  C   UNL     1     -27.365  16.552 -23.944  1.00  0.00    +0.008 C 
ATOM     14  C   UNL     1     -28.802  16.916 -24.288  1.00  0.00    +0.005 C 
ENDBRANCH  12  13
ENDBRANCH  11  12
ENDBRANCH   5  11
BRANCH   8  15
ATOM     15  N   UNL     1     -31.839  12.041 -29.845  1.00  0.00    -0.261 N 
ATOM     16  C   UNL     1     -33.054  12.659 -29.781  1.00  0.00    +0.413 C 
ATOM     17  O   UNL     1     -33.324  13.793 -29.422  1.00  0.00    -0.224 OA
ATOM     18  H   UNL     1     -31.851  11.090 -30.175  1.00  0.00    +0.176 HD
BRANCH  16  19
ATOM     19  O   UNL     1     -33.990  11.761 -30.207  1.00  0.00    -0.453 OA
ATOM     20  C   UNL     1     -34.816  11.246 -29.160  1.00  0.00    +0.284 C 
ENDBRANCH  16  19
ENDBRANCH   8  15
TORSDOF 5
ENDMDL
MODEL 2
REMARK VINA RESULT:    -7.053      1.438      2.015
REMARK INTER + INTRA:          -9.722
REMARK INTER:                  -9.141
REMARK INTRA:                  -0.580
REMARK UNBOUND:                -0.607
REMARK SMILES CCCSc1ccc2nc(NC(=O)OC)[nH]c2c1
REMARK SMILES IDX 16 1 9 2 17 3 8 4 5 5 18 6 7 7 10 8 6 9 4 11 3 12 2 13 1 14
REMARK SMILES IDX 11 15 12 16 13 17 14 19 15 20
REMARK H PARENT 16 10 11 18
ROOT
ATOM      1  N   UNL     1     -30.721  13.620 -28.535  1.00  0.00    -0.324 N 
ATOM      2  N   UNL     1     -29.523  12.378 -29.911  1.00  0.00    -0.213 NA
ATOM      3  C   UNL     1     -29.425  14.023 -28.349  1.00  0.00    +0.068 A 
ATOM      4  C   UNL     1     -28.696  13.225 -29.221  1.00  0.00    +0.091 A 
ATOM      5  C   UNL     1     -27.448  15.131 -27.595  1.00  0.00    +0.009 A 
ATOM      6  C   UNL     1     -28.842  14.983 -27.516  1.00  0.00    +0.043 A 
ATOM      7  C   UNL     1     -27.304  13.369 -29.280  1.00  0.00    +0.032 A 
ATOM      8  C   UNL     1     -30.739  12.629 -29.486  1.00  0.00    +0.210 A 
ATOM      9  C   UNL     1     -26.691  14.325 -28.456  1.00  0.00    +0.017 A 
ATOM     10  H   UNL     1     -31.526  13.988 -28.054  1.00  0.00    +0.170 HD
ENDROOT
BRANCH   5  11
ATOM     11  S   UNL     1     -26.670  16.345 -26.537  1.00  0.00    -0.126 SA
BRANCH  11  12
ATOM     12  C   UNL     1     -25.029  16.453 -27.329  1.00  0.00    +0.075 C 
BRANCH  12  13
ATOM     13  C   UNL     1     -23.997  15.709 -26.482  1.00  0.00    +0.008 C 
ATOM     14  C   UNL     1     -23.232  14.695 -27.319  1.00  0.00    +0.005 C 
ENDBRANCH  12  13
ENDBRANCH  11  12
ENDBRANCH   5  11
BRANCH   8  15
ATOM     15  N   UNL     1     -31.918  12.048 -29.865  1.00  0.00    -0.261 N 
ATOM     16  C   UNL     1     -33.119  12.693 -29.807  1.00  0.00    +0.413 C 
ATOM     17  O   UNL     1     -33.369  13.826 -29.431  1.00  0.00    -0.224 OA
ATOM     18  H   UNL     1     -31.946  11.104 -30.212  1.00  0.00    +0.176 HD
BRANCH  16  19
ATOM     19  O   UNL     1     -34.069  11.824 -30.260  1.00  0.00    -0.453 OA
ATOM     20  C   UNL     1     -34.860  11.238 -29.224  1.00  0.00    +0.284 C 
ENDBRANCH  16  19
ENDBRANCH   8  15
TORSDOF 5
ENDMDL
MODEL 3
REMARK VINA RESULT:    -7.014      7.727      8.429
REMARK INTER + INTRA:          -9.672
REMARK INTER:                  -9.102
REMARK INTRA:                  -0.570
REMARK UNBOUND:                -0.607
REMARK SMILES CCCSc1ccc2nc(NC(=O)OC)[nH]c2c1
REMARK SMILES IDX 16 1 9 2 17 3 8 4 5 5 18 6 7 7 10 8 6 9 4 11 3 12 2 13 1 14
REMARK SMILES IDX 11 15 12 16 13 17 14 19 15 20
REMARK H PARENT 16 10 11 18
ROOT
ATOM      1  N   UNL     1     -27.651   8.626 -23.387  1.00  0.00    -0.324 N 
ATOM      2  N   UNL     1     -29.125   7.820 -21.955  1.00  0.00    -0.213 NA
ATOM      3  C   UNL     1     -27.939   9.666 -22.542  1.00  0.00    +0.068 A 
ATOM      4  C   UNL     1     -28.867   9.133 -21.658  1.00  0.00    +0.091 A 
ATOM      5  C   UNL     1     -28.007  11.789 -21.450  1.00  0.00    +0.009 A 
ATOM      6  C   UNL     1     -27.486  10.987 -22.478  1.00  0.00    +0.043 A 
ATOM      7  C   UNL     1     -29.394   9.947 -20.647  1.00  0.00    +0.032 A 
ATOM      8  C   UNL     1     -28.384   7.531 -22.998  1.00  0.00    +0.210 A 
ATOM      9  C   UNL     1     -28.958  11.277 -20.557  1.00  0.00    +0.017 A 
ATOM     10  H   UNL     1     -27.010   8.659 -24.164  1.00  0.00    +0.170 HD
ENDROOT
BRANCH   5  11
ATOM     11  S   UNL     1     -27.454  13.487 -21.346  1.00  0.00    -0.126 SA
BRANCH  11  12
ATOM     12  C   UNL     1     -28.203  13.968 -19.752  1.00  0.00    +0.075 C 
BRANCH  12  13
ATOM     13  C   UNL     1     -29.098  15.190 -19.950  1.00  0.00    +0.008 C 
ATOM     14  C   UNL     1     -30.353  14.827 -20.730  1.00  0.00    +0.005 C 
ENDBRANCH  12  13
ENDBRANCH  11  12
ENDBRANCH   5  11
BRANCH   8  15
ATOM     15  N   UNL     1     -28.282   6.348 -23.677  1.00  0.00    -0.261 N 
ATOM     16  C   UNL     1     -27.203   6.019 -24.444  1.00  0.00    +0.413 C 
ATOM     17  O   UNL     1     -26.191   6.662 -24.668  1.00  0.00    -0.224 OA
ATOM     18  H   UNL     1     -29.013   5.657 -23.634  1.00  0.00    +0.176 HD
BRANCH  16  19
ATOM     19  O   UNL     1     -27.436   4.778 -24.964  1.00  0.00    -0.453 OA
ATOM     20  C   UNL     1     -26.789   4.545 -26.217  1.00  0.00    +0.284 C 
ENDBRANCH  16  19
ENDBRANCH   8  15
TORSDOF 5
ENDMDL
MODEL 4
REMARK VINA RESULT:    -6.837      1.534      2.580
REMARK INTER + INTRA:          -9.442
REMARK INTER:                  -8.932
REMARK INTRA:                  -0.510
REMARK UNBOUND:                -0.607
REMARK SMILES CCCSc1ccc2nc(NC(=O)OC)[nH]c2c1
REMARK SMILES IDX 16 1 9 2 17 3 8 4 5 5 18 6 7 7 10 8 6 9 4 11 3 12 2 13 1 14
REMARK SMILES IDX 11 15 12 16 13 17 14 19 15 20
REMARK H PARENT 16 10 11 18
ROOT
ATOM      1  N   UNL     1     -29.563  13.859 -29.190  1.00  0.00    -0.324 N 
ATOM      2  N   UNL     1     -30.692  13.662 -27.304  1.00  0.00    -0.213 NA
ATOM      3  C   UNL     1     -28.810  14.511 -28.248  1.00  0.00    +0.068 A 
ATOM      4  C   UNL     1     -29.544  14.375 -27.078  1.00  0.00    +0.091 A 
ATOM      5  C   UNL     1     -27.103  15.746 -27.121  1.00  0.00    +0.009 A 
ATOM      6  C   UNL     1     -27.590  15.191 -28.316  1.00  0.00    +0.043 A 
ATOM      7  C   UNL     1     -29.058  14.946 -25.895  1.00  0.00    +0.032 A 
ATOM      8  C   UNL     1     -30.688  13.360 -28.580  1.00  0.00    +0.210 A 
ATOM      9  C   UNL     1     -27.836  15.634 -25.932  1.00  0.00    +0.017 A 
ATOM     10  H   UNL     1     -29.330  13.764 -30.165  1.00  0.00    +0.170 HD
ENDROOT
BRANCH   5  11
ATOM     11  S   UNL     1     -25.550  16.630 -27.176  1.00  0.00    -0.126 SA
BRANCH  11  12
ATOM     12  C   UNL     1     -24.547  15.580 -26.069  1.00  0.00    +0.075 C 
BRANCH  12  13
ATOM     13  C   UNL     1     -24.043  14.358 -26.833  1.00  0.00    +0.008 C 
ATOM     14  C   UNL     1     -24.687  13.082 -26.310  1.00  0.00    +0.005 C 
ENDBRANCH  12  13
ENDBRANCH  11  12
ENDBRANCH   5  11
BRANCH   8  15
ATOM     15  N   UNL     1     -31.616  12.658 -29.299  1.00  0.00    -0.261 N 
ATOM     16  C   UNL     1     -32.897  13.089 -29.486  1.00  0.00    +0.413 C 
ATOM     17  O   UNL     1     -33.435  14.106 -29.080  1.00  0.00    -0.224 OA
ATOM     18  H   UNL     1     -31.385  11.778 -29.730  1.00  0.00    +0.176 HD
BRANCH  16  19
ATOM     19  O   UNL     1     -33.535  12.152 -30.246  1.00  0.00    -0.453 OA
ATOM     20  C   UNL     1     -34.642  11.530 -29.589  1.00  0.00    +0.284 C 
ENDBRANCH  16  19
ENDBRANCH   8  15
TORSDOF 5
ENDMDL
MODEL 5
REMARK VINA RESULT:    -6.673      2.084      3.025
REMARK INTER + INTRA:          -9.230
REMARK INTER:                  -8.508
REMARK INTRA:                  -0.722
REMARK UNBOUND:                -0.607
REMARK SMILES CCCSc1ccc2nc(NC(=O)OC)[nH]c2c1
REMARK SMILES IDX 16 1 9 2 17 3 8 4 5 5 18 6 7 7 10 8 6 9 4 11 3 12 2 13 1 14
REMARK SMILES IDX 11 15 12 16 13 17 14 19 15 20
REMARK H PARENT 16 10 11 18
ROOT
ATOM      1  N   UNL     1     -30.803  12.416 -29.925  1.00  0.00    -0.324 N 
ATOM      2  N   UNL     1     -31.730  13.600 -28.310  1.00  0.00    -0.213 NA
ATOM      3  C   UNL     1     -29.770  13.102 -29.343  1.00  0.00    +0.068 A 
ATOM      4  C   UNL     1     -30.380  13.839 -28.337  1.00  0.00    +0.091 A 
ATOM      5  C   UNL     1     -27.620  13.979 -28.780  1.00  0.00    +0.009 A 
ATOM      6  C   UNL     1     -28.396  13.146 -29.602  1.00  0.00    +0.043 A 
ATOM      7  C   UNL     1     -29.599  14.680 -27.534  1.00  0.00    +0.032 A 
ATOM      8  C   UNL     1     -31.967  12.741 -29.273  1.00  0.00    +0.210 A 
ATOM      9  C   UNL     1     -28.218  14.744 -27.770  1.00  0.00    +0.017 A 
ATOM     10  H   UNL     1     -30.722  11.780 -30.702  1.00  0.00    +0.170 HD
ENDROOT
BRANCH   5  11
ATOM     11  S   UNL     1     -25.861  14.064 -29.092  1.00  0.00    -0.126 SA
BRANCH  11  12
ATOM     12  C   UNL     1     -25.237  14.132 -27.377  1.00  0.00    +0.075 C 
BRANCH  12  13
ATOM     13  C   UNL     1     -25.155  12.720 -26.801  1.00  0.00    +0.008 C 
ATOM     14  C   UNL     1     -24.744  11.718 -27.870  1.00  0.00    +0.005 C 
ENDBRANCH  12  13
ENDBRANCH  11  12
ENDBRANCH   5  11
BRANCH   8  15
ATOM     15  N   UNL     1     -33.158  12.188 -29.656  1.00  0.00    -0.261 N 
ATOM     16  C   UNL     1     -33.613  12.215 -30.942  1.00  0.00    +0.413 C 
ATOM     17  O   UNL     1     -33.094  12.701 -31.933  1.00  0.00    -0.224 OA
ATOM     18  H   UNL     1     -33.757  11.729 -28.991  1.00  0.00    +0.176 HD
BRANCH  16  19
ATOM     19  O   UNL     1     -34.818  11.574 -30.960  1.00  0.00    -0.453 OA
ATOM     20  C   UNL     1     -35.289  11.191 -29.666  1.00  0.00    +0.284 C 
ENDBRANCH  16  19
ENDBRANCH   8  15
TORSDOF 5
ENDMDL
MODEL 6
REMARK VINA RESULT:    -6.667      6.794      7.574
REMARK INTER + INTRA:          -9.223
REMARK INTER:                  -8.541
REMARK INTRA:                  -0.682
REMARK UNBOUND:                -0.607
REMARK SMILES CCCSc1ccc2nc(NC(=O)OC)[nH]c2c1
REMARK SMILES IDX 16 1 9 2 17 3 8 4 5 5 18 6 7 7 10 8 6 9 4 11 3 12 2 13 1 14
REMARK SMILES IDX 11 15 12 16 13 17 14 19 15 20
REMARK H PARENT 16 10 11 18
ROOT
ATOM      1  N   UNL     1     -27.404   8.950 -22.872  1.00  0.00    -0.324 N 
ATOM      2  N   UNL     1     -26.015   9.436 -24.517  1.00  0.00    -0.213 NA
ATOM      3  C   UNL     1     -27.182  10.298 -22.770  1.00  0.00    +0.068 A 
ATOM      4  C   UNL     1     -26.305  10.574 -23.811  1.00  0.00    +0.091 A 
ATOM      5  C   UNL     1     -27.206  12.587 -22.087  1.00  0.00    +0.009 A 
ATOM      6  C   UNL     1     -27.652  11.271 -21.883  1.00  0.00    +0.043 A 
ATOM      7  C   UNL     1     -25.853  11.887 -23.995  1.00  0.00    +0.032 A 
ATOM      8  C   UNL     1     -26.685   8.467 -23.938  1.00  0.00    +0.210 A 
ATOM      9  C   UNL     1     -26.308  12.885 -23.121  1.00  0.00    +0.017 A 
ATOM     10  H   UNL     1     -27.994   8.404 -22.265  1.00  0.00    +0.170 HD
ENDROOT
BRANCH   5  11
ATOM     11  S   UNL     1     -27.783  13.854 -20.964  1.00  0.00    -0.126 SA
BRANCH  11  12
ATOM     12  C   UNL     1     -29.587  13.686 -21.195  1.00  0.00    +0.075 C 
BRANCH  12  13
ATOM     13  C   UNL     1     -30.027  14.486 -22.419  1.00  0.00    +0.008 C 
ATOM     14  C   UNL     1     -29.171  15.732 -22.594  1.00  0.00    +0.005 C 
ENDBRANCH  12  13
ENDBRANCH  11  12
ENDBRANCH   5  11
BRANCH   8  15
ATOM     15  N   UNL     1     -26.730   7.140 -24.266  1.00  0.00    -0.261 N 
ATOM     16  C   UNL     1     -27.788   6.333 -23.963  1.00  0.00    +0.413 C 
ATOM     17  O   UNL     1     -28.825   6.607 -23.380  1.00  0.00    -0.224 OA
ATOM     18  H   UNL     1     -25.971   6.698 -24.756  1.00  0.00    +0.176 HD
BRANCH  16  19
ATOM     19  O   UNL     1     -27.498   5.087 -24.437  1.00  0.00    -0.453 OA
ATOM     20  C   UNL     1     -26.804   5.090 -25.687  1.00  0.00    +0.284 C 
ENDBRANCH  16  19
ENDBRANCH   8  15
TORSDOF 5
ENDMDL
MODEL 7
REMARK VINA RESULT:    -6.484     20.124     21.102
REMARK INTER + INTRA:          -8.986
REMARK INTER:                  -8.330
REMARK INTRA:                  -0.656
REMARK UNBOUND:                -0.607
REMARK SMILES CCCSc1ccc2nc(NC(=O)OC)[nH]c2c1
REMARK SMILES IDX 16 1 9 2 17 3 8 4 5 5 18 6 7 7 10 8 6 9 4 11 3 12 2 13 1 14
REMARK SMILES IDX 11 15 12 16 13 17 14 19 15 20
REMARK H PARENT 16 10 11 18
ROOT
ATOM      1  N   UNL     1     -29.793  -5.527 -17.834  1.00  0.00    -0.324 N 
ATOM      2  N   UNL     1     -31.909  -5.545 -18.463  1.00  0.00    -0.213 NA
ATOM      3  C   UNL     1     -30.217  -4.229 -17.712  1.00  0.00    +0.068 A 
ATOM      4  C   UNL     1     -31.545  -4.270 -18.116  1.00  0.00    +0.091 A 
ATOM      5  C   UNL     1     -30.339  -1.880 -17.296  1.00  0.00    +0.009 A 
ATOM      6  C   UNL     1     -29.574  -3.058 -17.300  1.00  0.00    +0.043 A 
ATOM      7  C   UNL     1     -32.294  -3.087 -18.124  1.00  0.00    +0.032 A 
ATOM      8  C   UNL     1     -30.842  -6.289 -18.288  1.00  0.00    +0.210 A 
ATOM      9  C   UNL     1     -31.676  -1.896 -17.716  1.00  0.00    +0.017 A 
ATOM     10  H   UNL     1     -28.866  -5.864 -17.628  1.00  0.00    +0.170 HD
ENDROOT
BRANCH   5  11
ATOM     11  S   UNL     1     -29.544  -0.363 -16.782  1.00  0.00    -0.126 SA
BRANCH  11  12
ATOM     12  C   UNL     1     -28.344  -0.157 -18.142  1.00  0.00    +0.075 C 
BRANCH  12  13
ATOM     13  C   UNL     1     -28.730   1.053 -18.991  1.00  0.00    +0.008 C 
ATOM     14  C   UNL     1     -30.070   1.624 -18.552  1.00  0.00    +0.005 C 
ENDBRANCH  12  13
ENDBRANCH  11  12
ENDBRANCH   5  11
BRANCH   8  15
ATOM     15  N   UNL     1     -30.689  -7.632 -18.496  1.00  0.00    -0.261 N 
ATOM     16  C   UNL     1     -29.642  -8.164 -19.191  1.00  0.00    +0.413 C 
ATOM     17  O   UNL     1     -28.706  -7.597 -19.729  1.00  0.00    -0.224 OA
ATOM     18  H   UNL     1     -31.354  -8.295 -18.135  1.00  0.00    +0.176 HD
BRANCH  16  19
ATOM     19  O   UNL     1     -29.806  -9.519 -19.198  1.00  0.00    -0.453 OA
ATOM     20  C   UNL     1     -29.673 -10.111 -20.493  1.00  0.00    +0.284 C 
ENDBRANCH  16  19
ENDBRANCH   8  15
TORSDOF 5
ENDMDL
MODEL 8
REMARK VINA RESULT:    -6.446      1.763      2.358
REMARK INTER + INTRA:          -8.937
REMARK INTER:                  -8.288
REMARK INTRA:                  -0.649
REMARK UNBOUND:                -0.607
REMARK SMILES CCCSc1ccc2nc(NC(=O)OC)[nH]c2c1
REMARK SMILES IDX 16 1 9 2 17 3 8 4 5 5 18 6 7 7 10 8 6 9 4 11 3 12 2 13 1 14
REMARK SMILES IDX 11 15 12 16 13 17 14 19 15 20
REMARK H PARENT 16 10 11 18
ROOT
ATOM      1  N   UNL     1     -31.426  13.337 -27.220  1.00  0.00    -0.324 N 
ATOM      2  N   UNL     1     -30.065  13.887 -28.869  1.00  0.00    -0.213 NA
ATOM      3  C   UNL     1     -30.382  13.995 -26.623  1.00  0.00    +0.068 A 
ATOM      4  C   UNL     1     -29.544  14.324 -27.679  1.00  0.00    +0.091 A 
ATOM      5  C   UNL     1     -28.914  15.019 -25.042  1.00  0.00    +0.009 A 
ATOM      6  C   UNL     1     -30.104  14.317 -25.291  1.00  0.00    +0.043 A 
ATOM      7  C   UNL     1     -28.350  15.009 -27.418  1.00  0.00    +0.032 A 
ATOM      8  C   UNL     1     -31.198  13.294 -28.574  1.00  0.00    +0.210 A 
ATOM      9  C   UNL     1     -28.045  15.347 -26.091  1.00  0.00    +0.017 A 
ATOM     10  H   UNL     1     -32.224  12.948 -26.745  1.00  0.00    +0.170 HD
ENDROOT
BRANCH   5  11
ATOM     11  S   UNL     1     -28.525  15.440 -23.347  1.00  0.00    -0.126 SA
BRANCH  11  12
ATOM     12  C   UNL     1     -26.726  15.718 -23.494  1.00  0.00    +0.075 C 
BRANCH  12  13
ATOM     13  C   UNL     1     -25.973  14.456 -23.078  1.00  0.00    +0.008 C 
ATOM     14  C   UNL     1     -24.984  14.030 -24.153  1.00  0.00    +0.005 C 
ENDBRANCH  12  13
ENDBRANCH  11  12
ENDBRANCH   5  11
BRANCH   8  15
ATOM     15  N   UNL     1     -32.095  12.691 -29.413  1.00  0.00    -0.261 N 
ATOM     16  C   UNL     1     -33.438  12.668 -29.176  1.00  0.00    +0.413 C 
ATOM     17  O   UNL     1     -34.065  13.139 -28.241  1.00  0.00    -0.224 OA
ATOM     18  H   UNL     1     -31.793  12.233 -30.256  1.00  0.00    +0.176 HD
BRANCH  16  19
ATOM     19  O   UNL     1     -34.022  11.992 -30.208  1.00  0.00    -0.453 OA
ATOM     20  C   UNL     1     -35.206  11.282 -29.839  1.00  0.00    +0.284 C 
ENDBRANCH  16  19
ENDBRANCH   8  15
TORSDOF 5
ENDMDL
MODEL 9
REMARK VINA RESULT:    -6.255     20.819     21.970
REMARK INTER + INTRA:          -8.691
REMARK INTER:                  -8.062
REMARK INTRA:                  -0.629
REMARK UNBOUND:                -0.607
REMARK SMILES CCCSc1ccc2nc(NC(=O)OC)[nH]c2c1
REMARK SMILES IDX 16 1 9 2 17 3 8 4 5 5 18 6 7 7 10 8 6 9 4 11 3 12 2 13 1 14
REMARK SMILES IDX 11 15 12 16 13 17 14 19 15 20
REMARK H PARENT 16 10 11 18
ROOT
ATOM      1  N   UNL     1     -31.181  -6.827 -19.107  1.00  0.00    -0.324 N 
ATOM      2  N   UNL     1     -29.115  -6.760 -18.334  1.00  0.00    -0.213 NA
ATOM      3  C   UNL     1     -31.102  -5.662 -18.390  1.00  0.00    +0.068 A 
ATOM      4  C   UNL     1     -29.797  -5.648 -17.914  1.00  0.00    +0.091 A 
ATOM      5  C   UNL     1     -31.587  -3.575 -17.333  1.00  0.00    +0.009 A 
ATOM      6  C   UNL     1     -32.029  -4.651 -18.120  1.00  0.00    +0.043 A 
ATOM      7  C   UNL     1     -29.371  -4.579 -17.116  1.00  0.00    +0.032 A 
ATOM      8  C   UNL     1     -29.963  -7.459 -19.051  1.00  0.00    +0.210 A 
ATOM      9  C   UNL     1     -30.279  -3.549 -16.828  1.00  0.00    +0.017 A 
ATOM     10  H   UNL     1     -31.997  -7.163 -19.592  1.00  0.00    +0.170 HD
ENDROOT
BRANCH   5  11
ATOM     11  S   UNL     1     -32.751  -2.269 -16.962  1.00  0.00    -0.126 SA
BRANCH  11  12
ATOM     12  C   UNL     1     -31.600  -0.961 -16.420  1.00  0.00    +0.075 C 
BRANCH  12  13
ATOM     13  C   UNL     1     -31.667   0.219 -17.388  1.00  0.00    +0.008 C 
ATOM     14  C   UNL     1     -32.424  -0.155 -18.654  1.00  0.00    +0.005 C 
ENDBRANCH  12  13
ENDBRANCH  11  12
ENDBRANCH   5  11
BRANCH   8  15
ATOM     15  N   UNL     1     -29.767  -8.652 -19.690  1.00  0.00    -0.261 N 
ATOM     16  C   UNL     1     -29.924  -8.811 -21.036  1.00  0.00    +0.413 C 
ATOM     17  O   UNL     1     -30.249  -7.989 -21.877  1.00  0.00    -0.224 OA
ATOM     18  H   UNL     1     -29.491  -9.476 -19.183  1.00  0.00    +0.176 HD
BRANCH  16  19
ATOM     19  O   UNL     1     -29.647 -10.116 -21.327  1.00  0.00    -0.453 OA
ATOM     20  C   UNL     1     -30.383 -10.630 -22.439  1.00  0.00    +0.284 C 
ENDBRANCH  16  19
ENDBRANCH   8  15
TORSDOF 5
ENDMDL
