MODEL 1
REMARK VINA RESULT:    -6.822      0.000      0.000
REMARK INTER + INTRA:         -11.474
REMARK INTER:                 -10.012
REMARK INTRA:                  -1.462
REMARK UNBOUND:                -1.462
REMARK SMILES CCN(CC)CCC[C@H](C)Nc1ccnc2cc(Cl)ccc12
REMARK SMILES IDX 8 1 9 2 10 3 11 4 12 6 18 7 17 8 20 9 16 10 21 11 15 12
REMARK SMILES IDX 22 13 14 14 13 15 19 16 7 17 6 18 3 19 2 20 1 21 4 22 5 23
REMARK H PARENT 11 5
ROOT
ATOM      1  C   UNL     1     -38.717   4.956  13.140  1.00  0.00    +0.026 C 
ENDROOT
BRANCH   1   2
ATOM      2  C   UNL     1     -37.922   5.595  11.985  1.00  0.00    +0.076 C 
ATOM      3  C   UNL     1     -36.428   5.685  12.303  1.00  0.00    +0.031 C 
BRANCH   2   4
ATOM      4  N   UNL     1     -38.402   6.948  11.663  1.00  0.00    -0.382 N 
ATOM      5  H   UNL     1     -38.896   7.358  12.450  1.00  0.00    +0.160 HD
BRANCH   4   6
ATOM      6  C   UNL     1     -39.031   7.253  10.441  1.00  0.00    +0.045 A 
ATOM      7  C   UNL     1     -39.327  11.220   8.971  1.00  0.00    +0.043 A 
ATOM      8  C   UNL     1     -39.843  10.142   8.258  1.00  0.00    +0.049 A 
ATOM      9  C   UNL     1     -38.679  11.012  10.178  1.00  0.00    +0.021 A 
ATOM     10  C   UNL     1     -39.731   8.844   8.732  1.00  0.00    +0.074 A 
ATOM     11  C   UNL     1     -38.561   9.714  10.674  1.00  0.00    +0.014 A 
ATOM     12  N   UNL     1     -40.237   7.869   7.967  1.00  0.00    -0.256 NA
ATOM     13  C   UNL     1     -39.094   8.601   9.974  1.00  0.00    +0.023 A 
ATOM     14  C   UNL     1     -40.102   6.602   8.396  1.00  0.00    +0.114 A 
ATOM     15  C   UNL     1     -39.505   6.252   9.592  1.00  0.00    +0.046 A 
ATOM     16 Cl   UNL     1     -39.485  12.816   8.348  1.00  0.00    -0.084 Cl
ENDBRANCH   4   6
ENDBRANCH   2   4
ENDBRANCH   1   2
BRANCH   1  17
ATOM     17  C   UNL     1     -38.195   5.280  14.549  1.00  0.00    +0.018 C 
BRANCH  17  18
ATOM     18  C   UNL     1     -39.073   6.306  15.289  1.00  0.00    +0.084 C 
BRANCH  18  19
ATOM     19  N   UNL     1     -38.937   7.693  14.802  1.00  0.00    -0.304 NA
BRANCH  19  20
ATOM     20  C   UNL     1     -37.618   8.260  15.147  1.00  0.00    +0.081 C 
ATOM     21  C   UNL     1     -37.180   9.343  14.165  1.00  0.00    +0.021 C 
ENDBRANCH  19  20
BRANCH  19  22
ATOM     22  C   UNL     1     -40.025   8.544  15.326  1.00  0.00    +0.081 C 
ATOM     23  C   UNL     1     -41.058   7.748  16.119  1.00  0.00    +0.021 C 
ENDBRANCH  19  22
ENDBRANCH  18  19
ENDBRANCH  17  18
ENDBRANCH   1  17
TORSDOF 8
ENDMDL
MODEL 2
REMARK VINA RESULT:    -6.736      1.963      3.217
REMARK INTER + INTRA:         -11.348
REMARK INTER:                 -10.365
REMARK INTRA:                  -0.983
REMARK UNBOUND:                -1.462
REMARK SMILES CCN(CC)CCC[C@H](C)Nc1ccnc2cc(Cl)ccc12
REMARK SMILES IDX 8 1 9 2 10 3 11 4 12 6 18 7 17 8 20 9 16 10 21 11 15 12
REMARK SMILES IDX 22 13 14 14 13 15 19 16 7 17 6 18 3 19 2 20 1 21 4 22 5 23
REMARK H PARENT 11 5
ROOT
ATOM      1  C   UNL     1     -37.867   7.367  14.826  1.00  0.00    +0.026 C 
ENDROOT
BRANCH   1   2
ATOM      2  C   UNL     1     -38.867   6.246  15.175  1.00  0.00    +0.076 C 
ATOM      3  C   UNL     1     -38.172   4.890  15.323  1.00  0.00    +0.031 C 
BRANCH   2   4
ATOM      4  N   UNL     1     -39.923   6.109  14.160  1.00  0.00    -0.382 N 
ATOM      5  H   UNL     1     -40.598   5.401  14.428  1.00  0.00    +0.160 HD
BRANCH   4   6
ATOM      6  C   UNL     1     -39.640   6.060  12.781  1.00  0.00    +0.045 A 
ATOM      7  C   UNL     1     -40.205   9.401  10.231  1.00  0.00    +0.043 A 
ATOM      8  C   UNL     1     -39.716   8.192   9.745  1.00  0.00    +0.049 A 
ATOM      9  C   UNL     1     -40.498   9.545  11.578  1.00  0.00    +0.021 A 
ATOM     10  C   UNL     1     -39.516   7.106  10.583  1.00  0.00    +0.074 A 
ATOM     11  C   UNL     1     -40.309   8.462  12.436  1.00  0.00    +0.014 A 
ATOM     12  N   UNL     1     -39.022   5.991  10.030  1.00  0.00    -0.256 NA
ATOM     13  C   UNL     1     -39.829   7.214  11.961  1.00  0.00    +0.023 A 
ATOM     14  C   UNL     1     -38.788   4.942  10.839  1.00  0.00    +0.114 A 
ATOM     15  C   UNL     1     -39.059   4.935  12.193  1.00  0.00    +0.046 A 
ATOM     16 Cl   UNL     1     -40.437  10.726   9.159  1.00  0.00    -0.084 Cl
ENDBRANCH   4   6
ENDBRANCH   2   4
ENDBRANCH   1   2
BRANCH   1  17
ATOM     17  C   UNL     1     -37.563   8.349  15.969  1.00  0.00    +0.018 C 
BRANCH  17  18
ATOM     18  C   UNL     1     -38.784   9.199  16.366  1.00  0.00    +0.084 C 
BRANCH  18  19
ATOM     19  N   UNL     1     -39.324   8.907  17.708  1.00  0.00    -0.304 NA
BRANCH  19  20
ATOM     20  C   UNL     1     -40.685   8.339  17.629  1.00  0.00    +0.081 C 
ATOM     21  C   UNL     1     -41.378   8.677  16.312  1.00  0.00    +0.021 C 
ENDBRANCH  19  20
BRANCH  19  22
ATOM     22  C   UNL     1     -39.310  10.115  18.556  1.00  0.00    +0.081 C 
ATOM     23  C   UNL     1     -38.981  11.379  17.767  1.00  0.00    +0.021 C 
ENDBRANCH  19  22
ENDBRANCH  18  19
ENDBRANCH  17  18
ENDBRANCH   1  17
TORSDOF 8
ENDMDL
MODEL 3
REMARK VINA RESULT:    -6.735      2.189      3.819
REMARK INTER + INTRA:         -11.347
REMARK INTER:                 -10.120
REMARK INTRA:                  -1.227
REMARK UNBOUND:                -1.462
REMARK SMILES CCN(CC)CCC[C@H](C)Nc1ccnc2cc(Cl)ccc12
REMARK SMILES IDX 8 1 9 2 10 3 11 4 12 6 18 7 17 8 20 9 16 10 21 11 15 12
REMARK SMILES IDX 22 13 14 14 13 15 19 16 7 17 6 18 3 19 2 20 1 21 4 22 5 23
REMARK H PARENT 11 5
ROOT
ATOM      1  C   UNL     1     -37.619  10.614  13.956  1.00  0.00    +0.026 C 
ENDROOT
BRANCH   1   2
ATOM      2  C   UNL     1     -38.385  10.628  12.618  1.00  0.00    +0.076 C 
ATOM      3  C   UNL     1     -39.687   9.827  12.699  1.00  0.00    +0.031 C 
BRANCH   2   4
ATOM      4  N   UNL     1     -37.581  10.081  11.514  1.00  0.00    -0.382 N 
ATOM      5  H   UNL     1     -37.696  10.633  10.670  1.00  0.00    +0.160 HD
BRANCH   4   6
ATOM      6  C   UNL     1     -37.533   8.703  11.228  1.00  0.00    +0.045 A 
ATOM      7  C   UNL     1     -39.549   7.003   7.908  1.00  0.00    +0.043 A 
ATOM      8  C   UNL     1     -38.790   6.221   8.773  1.00  0.00    +0.049 A 
ATOM      9  C   UNL     1     -39.642   8.372   8.103  1.00  0.00    +0.021 A 
ATOM     10  C   UNL     1     -38.118   6.780   9.849  1.00  0.00    +0.074 A 
ATOM     11  C   UNL     1     -38.978   8.952   9.183  1.00  0.00    +0.014 A 
ATOM     12  N   UNL     1     -37.395   5.954  10.614  1.00  0.00    -0.256 NA
ATOM     13  C   UNL     1     -38.213   8.174  10.089  1.00  0.00    +0.023 A 
ATOM     14  C   UNL     1     -36.708   6.489  11.638  1.00  0.00    +0.114 A 
ATOM     15  C   UNL     1     -36.732   7.831  11.967  1.00  0.00    +0.046 A 
ATOM     16 Cl   UNL     1     -40.366   6.270   6.583  1.00  0.00    -0.084 Cl
ENDBRANCH   4   6
ENDBRANCH   2   4
ENDBRANCH   1   2
BRANCH   1  17
ATOM     17  C   UNL     1     -38.410  10.065  15.154  1.00  0.00    +0.018 C 
BRANCH  17  18
ATOM     18  C   UNL     1     -37.721   8.861  15.823  1.00  0.00    +0.084 C 
BRANCH  18  19
ATOM     19  N   UNL     1     -38.613   7.715  16.089  1.00  0.00    -0.304 NA
BRANCH  19  20
ATOM     20  C   UNL     1     -38.306   6.575  15.201  1.00  0.00    +0.081 C 
ATOM     21  C   UNL     1     -39.476   6.225  14.286  1.00  0.00    +0.021 C 
ENDBRANCH  19  20
BRANCH  19  22
ATOM     22  C   UNL     1     -40.030   8.110  15.963  1.00  0.00    +0.081 C 
ATOM     23  C   UNL     1     -40.749   8.139  17.309  1.00  0.00    +0.021 C 
ENDBRANCH  19  22
ENDBRANCH  18  19
ENDBRANCH  17  18
ENDBRANCH   1  17
TORSDOF 8
ENDMDL
MODEL 4
REMARK VINA RESULT:    -6.702      2.472      4.013
REMARK INTER + INTRA:         -11.298
REMARK INTER:                 -10.524
REMARK INTRA:                  -0.774
REMARK UNBOUND:                -1.462
REMARK SMILES CCN(CC)CCC[C@H](C)Nc1ccnc2cc(Cl)ccc12
REMARK SMILES IDX 8 1 9 2 10 3 11 4 12 6 18 7 17 8 20 9 16 10 21 11 15 12
REMARK SMILES IDX 22 13 14 14 13 15 19 16 7 17 6 18 3 19 2 20 1 21 4 22 5 23
REMARK H PARENT 11 5
ROOT
ATOM      1  C   UNL     1     -38.221   8.604  14.220  1.00  0.00    +0.026 C 
ENDROOT
BRANCH   1   2
ATOM      2  C   UNL     1     -37.489   9.659  13.366  1.00  0.00    +0.076 C 
ATOM      3  C   UNL     1     -38.406  10.828  12.998  1.00  0.00    +0.031 C 
BRANCH   2   4
ATOM      4  N   UNL     1     -36.953   9.090  12.120  1.00  0.00    -0.382 N 
ATOM      5  H   UNL     1     -37.008   9.758  11.359  1.00  0.00    +0.160 HD
BRANCH   4   6
ATOM      6  C   UNL     1     -37.272   7.787  11.690  1.00  0.00    +0.045 A 
ATOM      7  C   UNL     1     -40.049   7.046   8.572  1.00  0.00    +0.043 A 
ATOM      8  C   UNL     1     -39.393   6.005   9.221  1.00  0.00    +0.049 A 
ATOM      9  C   UNL     1     -39.788   8.362   8.921  1.00  0.00    +0.021 A 
ATOM     10  C   UNL     1     -38.472   6.249  10.229  1.00  0.00    +0.074 A 
ATOM     11  C   UNL     1     -38.869   8.628   9.937  1.00  0.00    +0.014 A 
ATOM     12  N   UNL     1     -37.874   5.186  10.780  1.00  0.00    -0.256 NA
ATOM     13  C   UNL     1     -38.200   7.583  10.624  1.00  0.00    +0.023 A 
ATOM     14  C   UNL     1     -36.951   5.411  11.732  1.00  0.00    +0.114 A 
ATOM     15  C   UNL     1     -36.612   6.667  12.198  1.00  0.00    +0.046 A 
ATOM     16 Cl   UNL     1     -41.183   6.701   7.325  1.00  0.00    -0.084 Cl
ENDBRANCH   4   6
ENDBRANCH   2   4
ENDBRANCH   1   2
BRANCH   1  17
ATOM     17  C   UNL     1     -37.609   8.348  15.606  1.00  0.00    +0.018 C 
BRANCH  17  18
ATOM     18  C   UNL     1     -37.866   9.499  16.595  1.00  0.00    +0.084 C 
BRANCH  18  19
ATOM     19  N   UNL     1     -38.579   9.104  17.825  1.00  0.00    -0.304 NA
BRANCH  19  20
ATOM     20  C   UNL     1     -40.032   9.343  17.707  1.00  0.00    +0.081 C 
ATOM     21  C   UNL     1     -40.796   8.080  17.321  1.00  0.00    +0.021 C 
ENDBRANCH  19  20
BRANCH  19  22
ATOM     22  C   UNL     1     -38.027   9.803  19.002  1.00  0.00    +0.081 C 
ATOM     23  C   UNL     1     -39.113  10.255  19.975  1.00  0.00    +0.021 C 
ENDBRANCH  19  22
ENDBRANCH  18  19
ENDBRANCH  17  18
ENDBRANCH   1  17
TORSDOF 8
ENDMDL
MODEL 5
REMARK VINA RESULT:    -6.578      3.156      6.175
REMARK INTER + INTRA:         -11.117
REMARK INTER:                  -9.930
REMARK INTRA:                  -1.187
REMARK UNBOUND:                -1.462
REMARK SMILES CCN(CC)CCC[C@H](C)Nc1ccnc2cc(Cl)ccc12
REMARK SMILES IDX 8 1 9 2 10 3 11 4 12 6 18 7 17 8 20 9 16 10 21 11 15 12
REMARK SMILES IDX 22 13 14 14 13 15 19 16 7 17 6 18 3 19 2 20 1 21 4 22 5 23
REMARK H PARENT 11 5
ROOT
ATOM      1  C   UNL     1     -37.962   5.920  14.393  1.00  0.00    +0.026 C 
ENDROOT
BRANCH   1   2
ATOM      2  C   UNL     1     -38.508   6.602  15.664  1.00  0.00    +0.076 C 
ATOM      3  C   UNL     1     -39.948   7.085  15.477  1.00  0.00    +0.031 C 
BRANCH   2   4
ATOM      4  N   UNL     1     -37.689   7.755  16.071  1.00  0.00    -0.382 N 
ATOM      5  H   UNL     1     -37.616   7.814  17.081  1.00  0.00    +0.160 HD
BRANCH   4   6
ATOM      6  C   UNL     1     -37.839   9.027  15.487  1.00  0.00    +0.045 A 
ATOM      7  C   UNL     1     -39.295  12.363  17.663  1.00  0.00    +0.043 A 
ATOM      8  C   UNL     1     -38.928  12.474  16.325  1.00  0.00    +0.049 A 
ATOM      9  C   UNL     1     -39.169  11.151  18.323  1.00  0.00    +0.021 A 
ATOM     10  C   UNL     1     -38.436  11.387  15.620  1.00  0.00    +0.074 A 
ATOM     11  C   UNL     1     -38.681  10.044  17.629  1.00  0.00    +0.014 A 
ATOM     12  N   UNL     1     -38.088  11.594  14.344  1.00  0.00    -0.256 NA
ATOM     13  C   UNL     1     -38.317  10.128  16.260  1.00  0.00    +0.023 A 
ATOM     14  C   UNL     1     -37.574  10.557  13.659  1.00  0.00    +0.114 A 
ATOM     15  C   UNL     1     -37.419   9.287  14.181  1.00  0.00    +0.046 A 
ATOM     16 Cl   UNL     1     -39.899  13.737  18.504  1.00  0.00    -0.084 Cl
ENDBRANCH   4   6
ENDBRANCH   2   4
ENDBRANCH   1   2
BRANCH   1  17
ATOM     17  C   UNL     1     -38.961   5.012  13.660  1.00  0.00    +0.018 C 
BRANCH  17  18
ATOM     18  C   UNL     1     -39.039   5.305  12.151  1.00  0.00    +0.084 C 
BRANCH  18  19
ATOM     19  N   UNL     1     -38.527   6.632  11.757  1.00  0.00    -0.304 NA
BRANCH  19  20
ATOM     20  C   UNL     1     -39.580   7.450  11.122  1.00  0.00    +0.081 C 
ATOM     21  C   UNL     1     -40.371   8.264  12.142  1.00  0.00    +0.021 C 
ENDBRANCH  19  20
BRANCH  19  22
ATOM     22  C   UNL     1     -37.357   6.501  10.865  1.00  0.00    +0.081 C 
ATOM     23  C   UNL     1     -36.091   7.100  11.472  1.00  0.00    +0.021 C 
ENDBRANCH  19  22
ENDBRANCH  18  19
ENDBRANCH  17  18
ENDBRANCH   1  17
TORSDOF 8
ENDMDL
MODEL 6
REMARK VINA RESULT:    -6.552      4.470      7.372
REMARK INTER + INTRA:         -11.078
REMARK INTER:                 -10.264
REMARK INTRA:                  -0.814
REMARK UNBOUND:                -1.462
REMARK SMILES CCN(CC)CCC[C@H](C)Nc1ccnc2cc(Cl)ccc12
REMARK SMILES IDX 8 1 9 2 10 3 11 4 12 6 18 7 17 8 20 9 16 10 21 11 15 12
REMARK SMILES IDX 22 13 14 14 13 15 19 16 7 17 6 18 3 19 2 20 1 21 4 22 5 23
REMARK H PARENT 11 5
ROOT
ATOM      1  C   UNL     1     -40.227  10.459   9.187  1.00  0.00    +0.026 C 
ENDROOT
BRANCH   1   2
ATOM      2  C   UNL     1     -39.855  11.955   9.184  1.00  0.00    +0.076 C 
ATOM      3  C   UNL     1     -38.732  12.264  10.177  1.00  0.00    +0.031 C 
BRANCH   2   4
ATOM      4  N   UNL     1     -41.004  12.812   9.514  1.00  0.00    -0.382 N 
ATOM      5  H   UNL     1     -41.880  12.354   9.286  1.00  0.00    +0.160 HD
BRANCH   4   6
ATOM      6  C   UNL     1     -41.037  14.183   9.193  1.00  0.00    +0.045 A 
ATOM      7  C   UNL     1     -40.955  17.210  12.161  1.00  0.00    +0.043 A 
ATOM      8  C   UNL     1     -41.007  17.524  10.807  1.00  0.00    +0.049 A 
ATOM      9  C   UNL     1     -40.906  15.887  12.570  1.00  0.00    +0.021 A 
ATOM     10  C   UNL     1     -41.016  16.534   9.836  1.00  0.00    +0.074 A 
ATOM     11  C   UNL     1     -40.921  14.876  11.609  1.00  0.00    +0.014 A 
ATOM     12  N   UNL     1     -41.044  16.931   8.559  1.00  0.00    -0.256 NA
ATOM     13  C   UNL     1     -40.991  15.170  10.223  1.00  0.00    +0.023 A 
ATOM     14  C   UNL     1     -41.016  15.982   7.607  1.00  0.00    +0.114 A 
ATOM     15  C   UNL     1     -40.996  14.625   7.870  1.00  0.00    +0.046 A 
ATOM     16 Cl   UNL     1     -40.942  18.469  13.334  1.00  0.00    -0.084 Cl
ENDBRANCH   4   6
ENDBRANCH   2   4
ENDBRANCH   1   2
BRANCH   1  17
ATOM     17  C   UNL     1     -39.497   9.603   8.139  1.00  0.00    +0.018 C 
BRANCH  17  18
ATOM     18  C   UNL     1     -38.515   8.598   8.768  1.00  0.00    +0.084 C 
BRANCH  18  19
ATOM     19  N   UNL     1     -38.915   7.184   8.634  1.00  0.00    -0.304 NA
BRANCH  19  20
ATOM     20  C   UNL     1     -40.260   7.058   8.038  1.00  0.00    +0.081 C 
ATOM     21  C   UNL     1     -40.236   6.307   6.710  1.00  0.00    +0.021 C 
ENDBRANCH  19  20
BRANCH  19  22
ATOM     22  C   UNL     1     -38.854   6.494   9.938  1.00  0.00    +0.081 C 
ATOM     23  C   UNL     1     -40.228   6.352  10.588  1.00  0.00    +0.021 C 
ENDBRANCH  19  22
ENDBRANCH  18  19
ENDBRANCH  17  18
ENDBRANCH   1  17
TORSDOF 8
ENDMDL
MODEL 7
REMARK VINA RESULT:    -6.512      2.371      4.293
REMARK INTER + INTRA:         -11.019
REMARK INTER:                  -9.890
REMARK INTRA:                  -1.129
REMARK UNBOUND:                -1.462
REMARK SMILES CCN(CC)CCC[C@H](C)Nc1ccnc2cc(Cl)ccc12
REMARK SMILES IDX 8 1 9 2 10 3 11 4 12 6 18 7 17 8 20 9 16 10 21 11 15 12
REMARK SMILES IDX 22 13 14 14 13 15 19 16 7 17 6 18 3 19 2 20 1 21 4 22 5 23
REMARK H PARENT 11 5
ROOT
ATOM      1  C   UNL     1     -36.960   7.685  10.486  1.00  0.00    +0.026 C 
ENDROOT
BRANCH   1   2
ATOM      2  C   UNL     1     -38.047   8.678  10.028  1.00  0.00    +0.076 C 
ATOM      3  C   UNL     1     -38.428   8.468   8.561  1.00  0.00    +0.031 C 
BRANCH   2   4
ATOM      4  N   UNL     1     -37.623  10.078  10.193  1.00  0.00    -0.382 N 
ATOM      5  H   UNL     1     -36.639  10.136  10.434  1.00  0.00    +0.160 HD
BRANCH   4   6
ATOM      6  C   UNL     1     -38.389  11.016  10.912  1.00  0.00    +0.045 A 
ATOM      7  C   UNL     1     -40.770  13.951   8.988  1.00  0.00    +0.043 A 
ATOM      8  C   UNL     1     -40.713  13.859  10.375  1.00  0.00    +0.049 A 
ATOM      9  C   UNL     1     -40.059  13.060   8.200  1.00  0.00    +0.021 A 
ATOM     10  C   UNL     1     -39.947  12.888  11.003  1.00  0.00    +0.074 A 
ATOM     11  C   UNL     1     -39.278  12.080   8.812  1.00  0.00    +0.014 A 
ATOM     12  N   UNL     1     -39.972  12.862  12.341  1.00  0.00    -0.256 NA
ATOM     13  C   UNL     1     -39.191  11.977  10.225  1.00  0.00    +0.023 A 
ATOM     14  C   UNL     1     -39.264  11.902  12.962  1.00  0.00    +0.114 A 
ATOM     15  C   UNL     1     -38.488  10.967  12.304  1.00  0.00    +0.046 A 
ATOM     16 Cl   UNL     1     -41.734  15.168   8.248  1.00  0.00    -0.084 Cl
ENDBRANCH   4   6
ENDBRANCH   2   4
ENDBRANCH   1   2
BRANCH   1  17
ATOM     17  C   UNL     1     -36.712   7.642  12.002  1.00  0.00    +0.018 C 
BRANCH  17  18
ATOM     18  C   UNL     1     -37.393   6.442  12.685  1.00  0.00    +0.084 C 
BRANCH  18  19
ATOM     19  N   UNL     1     -38.834   6.623  12.949  1.00  0.00    -0.304 NA
BRANCH  19  20
ATOM     20  C   UNL     1     -39.125   6.588  14.397  1.00  0.00    +0.081 C 
ATOM     21  C   UNL     1     -38.265   5.566  15.135  1.00  0.00    +0.021 C 
ENDBRANCH  19  20
BRANCH  19  22
ATOM     22  C   UNL     1     -39.633   5.612  12.230  1.00  0.00    +0.081 C 
ATOM     23  C   UNL     1     -38.764   4.576  11.523  1.00  0.00    +0.021 C 
ENDBRANCH  19  22
ENDBRANCH  18  19
ENDBRANCH  17  18
ENDBRANCH   1  17
TORSDOF 8
ENDMDL
MODEL 8
REMARK VINA RESULT:    -6.506      1.733      4.153
REMARK INTER + INTRA:         -11.010
REMARK INTER:                  -9.459
REMARK INTRA:                  -1.551
REMARK UNBOUND:                -1.462
REMARK SMILES CCN(CC)CCC[C@H](C)Nc1ccnc2cc(Cl)ccc12
REMARK SMILES IDX 8 1 9 2 10 3 11 4 12 6 18 7 17 8 20 9 16 10 21 11 15 12
REMARK SMILES IDX 22 13 14 14 13 15 19 16 7 17 6 18 3 19 2 20 1 21 4 22 5 23
REMARK H PARENT 11 5
ROOT
ATOM      1  C   UNL     1     -39.796   5.945  14.874  1.00  0.00    +0.026 C 
ENDROOT
BRANCH   1   2
ATOM      2  C   UNL     1     -39.860   7.462  15.145  1.00  0.00    +0.076 C 
ATOM      3  C   UNL     1     -40.944   7.812  16.166  1.00  0.00    +0.031 C 
BRANCH   2   4
ATOM      4  N   UNL     1     -40.120   8.233  13.919  1.00  0.00    -0.382 N 
ATOM      5  H   UNL     1     -40.302   7.619  13.132  1.00  0.00    +0.160 HD
BRANCH   4   6
ATOM      6  C   UNL     1     -39.332   9.338  13.543  1.00  0.00    +0.045 A 
ATOM      7  C   UNL     1     -39.510  11.033   9.660  1.00  0.00    +0.043 A 
ATOM      8  C   UNL     1     -38.669  11.551  10.639  1.00  0.00    +0.049 A 
ATOM      9  C   UNL     1     -40.332   9.954   9.945  1.00  0.00    +0.021 A 
ATOM     10  C   UNL     1     -38.624  11.007  11.914  1.00  0.00    +0.074 A 
ATOM     11  C   UNL     1     -40.297   9.388  11.220  1.00  0.00    +0.014 A 
ATOM     12  N   UNL     1     -37.801  11.586  12.797  1.00  0.00    -0.256 NA
ATOM     13  C   UNL     1     -39.435   9.889  12.230  1.00  0.00    +0.023 A 
ATOM     14  C   UNL     1     -37.776  11.092  14.047  1.00  0.00    +0.114 A 
ATOM     15  C   UNL     1     -38.519  10.004  14.462  1.00  0.00    +0.046 A 
ATOM     16 Cl   UNL     1     -39.538  11.738   8.091  1.00  0.00    -0.084 Cl
ENDBRANCH   4   6
ENDBRANCH   2   4
ENDBRANCH   1   2
BRANCH   1  17
ATOM     17  C   UNL     1     -38.519   5.462  14.169  1.00  0.00    +0.018 C 
BRANCH  17  18
ATOM     18  C   UNL     1     -38.790   4.906  12.758  1.00  0.00    +0.084 C 
BRANCH  18  19
ATOM     19  N   UNL     1     -37.822   5.340  11.732  1.00  0.00    -0.304 NA
BRANCH  19  20
ATOM     20  C   UNL     1     -36.699   6.089  12.332  1.00  0.00    +0.081 C 
ATOM     21  C   UNL     1     -36.592   7.509  11.784  1.00  0.00    +0.021 C 
ENDBRANCH  19  20
BRANCH  19  22
ATOM     22  C   UNL     1     -38.487   6.143  10.687  1.00  0.00    +0.081 C 
ATOM     23  C   UNL     1     -39.974   5.826  10.565  1.00  0.00    +0.021 C 
ENDBRANCH  19  22
ENDBRANCH  18  19
ENDBRANCH  17  18
ENDBRANCH   1  17
TORSDOF 8
ENDMDL
MODEL 9
REMARK VINA RESULT:    -6.498      1.761      2.371
REMARK INTER + INTRA:         -10.999
REMARK INTER:                 -10.264
REMARK INTRA:                  -0.735
REMARK UNBOUND:                -1.462
REMARK SMILES CCN(CC)CCC[C@H](C)Nc1ccnc2cc(Cl)ccc12
REMARK SMILES IDX 8 1 9 2 10 3 11 4 12 6 18 7 17 8 20 9 16 10 21 11 15 12
REMARK SMILES IDX 22 13 14 14 13 15 19 16 7 17 6 18 3 19 2 20 1 21 4 22 5 23
REMARK H PARENT 11 5
ROOT
ATOM      1  C   UNL     1     -37.946   8.255  13.825  1.00  0.00    +0.026 C 
ENDROOT
BRANCH   1   2
ATOM      2  C   UNL     1     -37.961   7.194  12.706  1.00  0.00    +0.076 C 
ATOM      3  C   UNL     1     -37.225   5.918  13.122  1.00  0.00    +0.031 C 
BRANCH   2   4
ATOM      4  N   UNL     1     -37.349   7.689  11.464  1.00  0.00    -0.382 N 
ATOM      5  H   UNL     1     -36.747   8.487  11.645  1.00  0.00    +0.160 HD
BRANCH   4   6
ATOM      6  C   UNL     1     -38.086   7.856  10.276  1.00  0.00    +0.045 A 
ATOM      7  C   UNL     1     -39.396  11.660   8.935  1.00  0.00    +0.043 A 
ATOM      8  C   UNL     1     -39.667  10.503   8.211  1.00  0.00    +0.049 A 
ATOM      9  C   UNL     1     -38.664  11.592  10.110  1.00  0.00    +0.021 A 
ATOM     10  C   UNL     1     -39.223   9.262   8.641  1.00  0.00    +0.074 A 
ATOM     11  C   UNL     1     -38.215  10.352  10.563  1.00  0.00    +0.014 A 
ATOM     12  N   UNL     1     -39.512   8.208   7.868  1.00  0.00    -0.256 NA
ATOM     13  C   UNL     1     -38.493   9.157   9.851  1.00  0.00    +0.023 A 
ATOM     14  C   UNL     1     -39.056   7.004   8.255  1.00  0.00    +0.114 A 
ATOM     15  C   UNL     1     -38.340   6.786   9.416  1.00  0.00    +0.046 A 
ATOM     16 Cl   UNL     1     -39.962  13.181   8.365  1.00  0.00    -0.084 Cl
ENDBRANCH   4   6
ENDBRANCH   2   4
ENDBRANCH   1   2
BRANCH   1  17
ATOM     17  C   UNL     1     -38.066   7.699  15.253  1.00  0.00    +0.018 C 
BRANCH  17  18
ATOM     18  C   UNL     1     -37.564   8.687  16.322  1.00  0.00    +0.084 C 
BRANCH  18  19
ATOM     19  N   UNL     1     -38.503   8.913  17.437  1.00  0.00    -0.304 NA
BRANCH  19  20
ATOM     20  C   UNL     1     -39.866   9.198  16.946  1.00  0.00    +0.081 C 
ATOM     21  C   UNL     1     -40.867   8.122  17.359  1.00  0.00    +0.021 C 
ENDBRANCH  19  20
BRANCH  19  22
ATOM     22  C   UNL     1     -38.027   9.999  18.316  1.00  0.00    +0.081 C 
ATOM     23  C   UNL     1     -38.426   9.789  19.774  1.00  0.00    +0.021 C 
ENDBRANCH  19  22
ENDBRANCH  18  19
ENDBRANCH  17  18
ENDBRANCH   1  17
TORSDOF 8
ENDMDL
