MODEL 1
REMARK VINA RESULT:    -5.622      0.000      0.000
REMARK INTER + INTRA:          -8.992
REMARK INTER:                  -8.251
REMARK INTRA:                  -0.741
REMARK UNBOUND:                -0.741
REMARK SMILES CCN(CC)CCC[C@H](C)Nc1ccnc2cc(Cl)ccc12
REMARK SMILES IDX 8 1 9 2 10 3 11 4 12 6 18 7 17 8 20 9 16 10 21 11 15 12
REMARK SMILES IDX 22 13 14 14 13 15 19 16 7 17 6 18 3 19 2 20 1 21 4 22 5 23
REMARK H PARENT 11 5
ROOT
ATOM      1  C   UNL     1      17.348  49.661   5.066  1.00  0.00    +0.026 C 
ENDROOT
BRANCH   1   2
ATOM      2  C   UNL     1      17.926  50.936   5.712  1.00  0.00    +0.076 C 
ATOM      3  C   UNL     1      18.310  50.708   7.176  1.00  0.00    +0.031 C 
BRANCH   2   4
ATOM      4  N   UNL     1      16.981  52.062   5.658  1.00  0.00    -0.382 N 
ATOM      5  H   UNL     1      16.043  51.742   5.440  1.00  0.00    +0.160 HD
BRANCH   4   6
ATOM      6  C   UNL     1      17.284  53.268   4.998  1.00  0.00    +0.045 A 
ATOM      7  C   UNL     1      14.298  56.090   3.947  1.00  0.00    +0.043 A 
ATOM      8  C   UNL     1      15.641  56.316   3.663  1.00  0.00    +0.049 A 
ATOM      9  C   UNL     1      13.909  54.935   4.608  1.00  0.00    +0.021 A 
ATOM     10  C   UNL     1      16.619  55.400   4.022  1.00  0.00    +0.074 A 
ATOM     11  C   UNL     1      14.876  53.999   4.972  1.00  0.00    +0.014 A 
ATOM     12  N   UNL     1      17.886  55.714   3.728  1.00  0.00    -0.256 NA
ATOM     13  C   UNL     1      16.250  54.199   4.678  1.00  0.00    +0.023 A 
ATOM     14  C   UNL     1      18.848  54.852   4.104  1.00  0.00    +0.114 A 
ATOM     15  C   UNL     1      18.602  53.651   4.742  1.00  0.00    +0.046 A 
ATOM     16 Cl   UNL     1      13.116  57.253   3.487  1.00  0.00    -0.084 Cl
ENDBRANCH   4   6
ENDBRANCH   2   4
ENDBRANCH   1   2
BRANCH   1  17
ATOM     17  C   UNL     1      17.896  48.339   5.627  1.00  0.00    +0.018 C 
BRANCH  17  18
ATOM     18  C   UNL     1      17.738  47.163   4.646  1.00  0.00    +0.084 C 
BRANCH  18  19
ATOM     19  N   UNL     1      16.529  46.344   4.861  1.00  0.00    -0.304 NA
BRANCH  19  20
ATOM     20  C   UNL     1      15.409  46.802   4.014  1.00  0.00    +0.081 C 
ATOM     21  C   UNL     1      15.221  45.924   2.780  1.00  0.00    +0.021 C 
ENDBRANCH  19  20
BRANCH  19  22
ATOM     22  C   UNL     1      16.141  46.341   6.285  1.00  0.00    +0.081 C 
ATOM     23  C   UNL     1      14.686  46.751   6.494  1.00  0.00    +0.021 C 
ENDBRANCH  19  22
ENDBRANCH  18  19
ENDBRANCH  17  18
ENDBRANCH   1  17
TORSDOF 8
ENDMDL
MODEL 2
REMARK VINA RESULT:    -5.313      5.355      9.083
REMARK INTER + INTRA:          -8.538
REMARK INTER:                  -7.180
REMARK INTRA:                  -1.358
REMARK UNBOUND:                -0.741
REMARK SMILES CCN(CC)CCC[C@H](C)Nc1ccnc2cc(Cl)ccc12
REMARK SMILES IDX 8 1 9 2 10 3 11 4 12 6 18 7 17 8 20 9 16 10 21 11 15 12
REMARK SMILES IDX 22 13 14 14 13 15 19 16 7 17 6 18 3 19 2 20 1 21 4 22 5 23
REMARK H PARENT 11 5
ROOT
ATOM      1  C   UNL     1      14.127  58.947   4.147  1.00  0.00    +0.026 C 
ENDROOT
BRANCH   1   2
ATOM      2  C   UNL     1      13.009  59.918   4.574  1.00  0.00    +0.076 C 
ATOM      3  C   UNL     1      12.893  61.108   3.619  1.00  0.00    +0.031 C 
BRANCH   2   4
ATOM      4  N   UNL     1      13.219  60.442   5.933  1.00  0.00    -0.382 N 
ATOM      5  H   UNL     1      14.205  60.451   6.173  1.00  0.00    +0.160 HD
BRANCH   4   6
ATOM      6  C   UNL     1      12.424  60.044   7.025  1.00  0.00    +0.045 A 
ATOM      7  C   UNL     1      13.911  57.564  10.127  1.00  0.00    +0.043 A 
ATOM      8  C   UNL     1      12.603  58.038  10.142  1.00  0.00    +0.049 A 
ATOM      9  C   UNL     1      14.769  57.917   9.098  1.00  0.00    +0.021 A 
ATOM     10  C   UNL     1      12.122  58.863   9.135  1.00  0.00    +0.074 A 
ATOM     11  C   UNL     1      14.303  58.740   8.073  1.00  0.00    +0.014 A 
ATOM     12  N   UNL     1      10.858  59.287   9.246  1.00  0.00    -0.256 NA
ATOM     13  C   UNL     1      12.969  59.222   8.057  1.00  0.00    +0.023 A 
ATOM     14  C   UNL     1      10.392  60.118   8.296  1.00  0.00    +0.114 A 
ATOM     15  C   UNL     1      11.126  60.528   7.200  1.00  0.00    +0.046 A 
ATOM     16 Cl   UNL     1      14.469  56.545  11.396  1.00  0.00    -0.084 Cl
ENDBRANCH   4   6
ENDBRANCH   2   4
ENDBRANCH   1   2
BRANCH   1  17
ATOM     17  C   UNL     1      13.724  57.465   4.106  1.00  0.00    +0.018 C 
BRANCH  17  18
ATOM     18  C   UNL     1      14.425  56.625   5.189  1.00  0.00    +0.084 C 
BRANCH  18  19
ATOM     19  N   UNL     1      15.713  56.038   4.771  1.00  0.00    -0.304 NA
BRANCH  19  20
ATOM     20  C   UNL     1      15.579  54.597   4.476  1.00  0.00    +0.081 C 
ATOM     21  C   UNL     1      14.512  53.927   5.338  1.00  0.00    +0.021 C 
ENDBRANCH  19  20
BRANCH  19  22
ATOM     22  C   UNL     1      16.754  56.268   5.793  1.00  0.00    +0.081 C 
ATOM     23  C   UNL     1      17.196  57.727   5.857  1.00  0.00    +0.021 C 
ENDBRANCH  19  22
ENDBRANCH  18  19
ENDBRANCH  17  18
ENDBRANCH   1  17
TORSDOF 8
ENDMDL
MODEL 3
REMARK VINA RESULT:    -5.208      5.675      9.348
REMARK INTER + INTRA:          -8.385
REMARK INTER:                  -7.321
REMARK INTRA:                  -1.064
REMARK UNBOUND:                -0.741
REMARK SMILES CCN(CC)CCC[C@H](C)Nc1ccnc2cc(Cl)ccc12
REMARK SMILES IDX 8 1 9 2 10 3 11 4 12 6 18 7 17 8 20 9 16 10 21 11 15 12
REMARK SMILES IDX 22 13 14 14 13 15 19 16 7 17 6 18 3 19 2 20 1 21 4 22 5 23
REMARK H PARENT 11 5
ROOT
ATOM      1  C   UNL     1      14.410  59.346   4.480  1.00  0.00    +0.026 C 
ENDROOT
BRANCH   1   2
ATOM      2  C   UNL     1      13.177  60.210   4.813  1.00  0.00    +0.076 C 
ATOM      3  C   UNL     1      13.036  61.394   3.854  1.00  0.00    +0.031 C 
BRANCH   2   4
ATOM      4  N   UNL     1      13.223  60.737   6.185  1.00  0.00    -0.382 N 
ATOM      5  H   UNL     1      14.181  60.850   6.502  1.00  0.00    +0.160 HD
BRANCH   4   6
ATOM      6  C   UNL     1      12.394  60.243   7.210  1.00  0.00    +0.045 A 
ATOM      7  C   UNL     1      13.823  57.608  10.210  1.00  0.00    +0.043 A 
ATOM      8  C   UNL     1      12.500  58.040  10.195  1.00  0.00    +0.049 A 
ATOM      9  C   UNL     1      14.714  58.055   9.248  1.00  0.00    +0.021 A 
ATOM     10  C   UNL     1      12.038  58.915   9.223  1.00  0.00    +0.074 A 
ATOM     11  C   UNL     1      14.267  58.930   8.258  1.00  0.00    +0.014 A 
ATOM     12  N   UNL     1      10.756  59.292   9.301  1.00  0.00    -0.256 NA
ATOM     13  C   UNL     1      12.920  59.371   8.211  1.00  0.00    +0.023 A 
ATOM     14  C   UNL     1      10.305  60.170   8.387  1.00  0.00    +0.114 A 
ATOM     15  C   UNL     1      11.074  60.674   7.356  1.00  0.00    +0.046 A 
ATOM     16 Cl   UNL     1      14.357  56.524  11.435  1.00  0.00    -0.084 Cl
ENDBRANCH   4   6
ENDBRANCH   2   4
ENDBRANCH   1   2
BRANCH   1  17
ATOM     17  C   UNL     1      14.256  57.847   4.777  1.00  0.00    +0.018 C 
BRANCH  17  18
ATOM     18  C   UNL     1      13.432  57.108   3.706  1.00  0.00    +0.084 C 
BRANCH  18  19
ATOM     19  N   UNL     1      14.126  55.967   3.078  1.00  0.00    -0.304 NA
BRANCH  19  20
ATOM     20  C   UNL     1      15.139  55.387   3.982  1.00  0.00    +0.081 C 
ATOM     21  C   UNL     1      14.565  54.274   4.855  1.00  0.00    +0.021 C 
ENDBRANCH  19  20
BRANCH  19  22
ATOM     22  C   UNL     1      14.738  56.365   1.794  1.00  0.00    +0.081 C 
ATOM     23  C   UNL     1      13.740  56.345   0.640  1.00  0.00    +0.021 C 
ENDBRANCH  19  22
ENDBRANCH  18  19
ENDBRANCH  17  18
ENDBRANCH   1  17
TORSDOF 8
ENDMDL
MODEL 4
REMARK VINA RESULT:    -5.176      8.710     11.113
REMARK INTER + INTRA:          -8.338
REMARK INTER:                  -6.821
REMARK INTRA:                  -1.517
REMARK UNBOUND:                -0.741
REMARK SMILES CCN(CC)CCC[C@H](C)Nc1ccnc2cc(Cl)ccc12
REMARK SMILES IDX 8 1 9 2 10 3 11 4 12 6 18 7 17 8 20 9 16 10 21 11 15 12
REMARK SMILES IDX 22 13 14 14 13 15 19 16 7 17 6 18 3 19 2 20 1 21 4 22 5 23
REMARK H PARENT 11 5
ROOT
ATOM      1  C   UNL     1      13.102  49.650  -1.323  1.00  0.00    +0.026 C 
ENDROOT
BRANCH   1   2
ATOM      2  C   UNL     1      12.074  50.394  -2.199  1.00  0.00    +0.076 C 
ATOM      3  C   UNL     1      12.443  51.868  -2.380  1.00  0.00    +0.031 C 
BRANCH   2   4
ATOM      4  N   UNL     1      10.717  50.330  -1.636  1.00  0.00    -0.382 N 
ATOM      5  H   UNL     1      10.659  50.839  -0.761  1.00  0.00    +0.160 HD
BRANCH   4   6
ATOM      6  C   UNL     1       9.978  49.132  -1.588  1.00  0.00    +0.045 A 
ATOM      7  C   UNL     1       8.029  47.530  -4.996  1.00  0.00    +0.043 A 
ATOM      8  C   UNL     1       7.979  46.887  -3.764  1.00  0.00    +0.049 A 
ATOM      9  C   UNL     1       8.744  48.709  -5.141  1.00  0.00    +0.021 A 
ATOM     10  C   UNL     1       8.631  47.403  -2.654  1.00  0.00    +0.074 A 
ATOM     11  C   UNL     1       9.402  49.246  -4.035  1.00  0.00    +0.014 A 
ATOM     12  N   UNL     1       8.545  46.703  -1.516  1.00  0.00    -0.256 NA
ATOM     13  C   UNL     1       9.351  48.618  -2.764  1.00  0.00    +0.023 A 
ATOM     14  C   UNL     1       9.204  47.172  -0.442  1.00  0.00    +0.114 A 
ATOM     15  C   UNL     1       9.931  48.347  -0.434  1.00  0.00    +0.046 A 
ATOM     16 Cl   UNL     1       7.208  46.857  -6.350  1.00  0.00    -0.084 Cl
ENDBRANCH   4   6
ENDBRANCH   2   4
ENDBRANCH   1   2
BRANCH   1  17
ATOM     17  C   UNL     1      13.690  48.375  -1.948  1.00  0.00    +0.018 C 
BRANCH  17  18
ATOM     18  C   UNL     1      13.278  47.096  -1.195  1.00  0.00    +0.084 C 
BRANCH  18  19
ATOM     19  N   UNL     1      13.267  45.874  -2.023  1.00  0.00    -0.304 NA
BRANCH  19  20
ATOM     20  C   UNL     1      14.176  45.998  -3.181  1.00  0.00    +0.081 C 
ATOM     21  C   UNL     1      15.390  45.082  -3.063  1.00  0.00    +0.021 C 
ENDBRANCH  19  20
BRANCH  19  22
ATOM     22  C   UNL     1      11.897  45.550  -2.466  1.00  0.00    +0.081 C 
ATOM     23  C   UNL     1      11.673  45.859  -3.944  1.00  0.00    +0.021 C 
ENDBRANCH  19  22
ENDBRANCH  18  19
ENDBRANCH  17  18
ENDBRANCH   1  17
TORSDOF 8
ENDMDL
MODEL 5
REMARK VINA RESULT:    -5.176      8.284     11.493
REMARK INTER + INTRA:          -8.338
REMARK INTER:                  -6.769
REMARK INTRA:                  -1.569
REMARK UNBOUND:                -0.741
REMARK SMILES CCN(CC)CCC[C@H](C)Nc1ccnc2cc(Cl)ccc12
REMARK SMILES IDX 8 1 9 2 10 3 11 4 12 6 18 7 17 8 20 9 16 10 21 11 15 12
REMARK SMILES IDX 22 13 14 14 13 15 19 16 7 17 6 18 3 19 2 20 1 21 4 22 5 23
REMARK H PARENT 11 5
ROOT
ATOM      1  C   UNL     1      13.610  48.403  -2.312  1.00  0.00    +0.026 C 
ENDROOT
BRANCH   1   2
ATOM      2  C   UNL     1      13.783  47.054  -1.587  1.00  0.00    +0.076 C 
ATOM      3  C   UNL     1      15.099  46.370  -1.965  1.00  0.00    +0.031 C 
BRANCH   2   4
ATOM      4  N   UNL     1      12.684  46.121  -1.880  1.00  0.00    -0.382 N 
ATOM      5  H   UNL     1      12.768  45.740  -2.817  1.00  0.00    +0.160 HD
BRANCH   4   6
ATOM      6  C   UNL     1      11.345  46.411  -1.557  1.00  0.00    +0.045 A 
ATOM      7  C   UNL     1       8.405  47.147  -4.523  1.00  0.00    +0.043 A 
ATOM      8  C   UNL     1       8.089  47.170  -3.169  1.00  0.00    +0.049 A 
ATOM      9  C   UNL     1       9.696  46.857  -4.935  1.00  0.00    +0.021 A 
ATOM     10  C   UNL     1       9.048  46.913  -2.200  1.00  0.00    +0.074 A 
ATOM     11  C   UNL     1      10.676  46.601  -3.976  1.00  0.00    +0.014 A 
ATOM     12  N   UNL     1       8.646  46.935  -0.923  1.00  0.00    -0.256 NA
ATOM     13  C   UNL     1      10.382  46.636  -2.588  1.00  0.00    +0.023 A 
ATOM     14  C   UNL     1       9.557  46.650   0.024  1.00  0.00    +0.114 A 
ATOM     15  C   UNL     1      10.885  46.372  -0.240  1.00  0.00    +0.046 A 
ATOM     16 Cl   UNL     1       7.186  47.469  -5.694  1.00  0.00    -0.084 Cl
ENDBRANCH   4   6
ENDBRANCH   2   4
ENDBRANCH   1   2
BRANCH   1  17
ATOM     17  C   UNL     1      13.245  49.589  -1.406  1.00  0.00    +0.018 C 
BRANCH  17  18
ATOM     18  C   UNL     1      11.830  50.133  -1.674  1.00  0.00    +0.084 C 
BRANCH  18  19
ATOM     19  N   UNL     1      11.794  51.483  -2.270  1.00  0.00    -0.304 NA
BRANCH  19  20
ATOM     20  C   UNL     1      11.233  51.456  -3.635  1.00  0.00    +0.081 C 
ATOM     21  C   UNL     1      10.023  50.532  -3.745  1.00  0.00    +0.021 C 
ENDBRANCH  19  20
BRANCH  19  22
ATOM     22  C   UNL     1      13.138  52.095  -2.269  1.00  0.00    +0.081 C 
ATOM     23  C   UNL     1      13.092  53.605  -2.053  1.00  0.00    +0.021 C 
ENDBRANCH  19  22
ENDBRANCH  18  19
ENDBRANCH  17  18
ENDBRANCH   1  17
TORSDOF 8
ENDMDL
MODEL 6
REMARK VINA RESULT:    -5.118      9.652     12.838
REMARK INTER + INTRA:          -8.252
REMARK INTER:                  -6.549
REMARK INTRA:                  -1.703
REMARK UNBOUND:                -0.741
REMARK SMILES CCN(CC)CCC[C@H](C)Nc1ccnc2cc(Cl)ccc12
REMARK SMILES IDX 8 1 9 2 10 3 11 4 12 6 18 7 17 8 20 9 16 10 21 11 15 12
REMARK SMILES IDX 22 13 14 14 13 15 19 16 7 17 6 18 3 19 2 20 1 21 4 22 5 23
REMARK H PARENT 11 5
ROOT
ATOM      1  C   UNL     1      10.284  50.001  -3.799  1.00  0.00    +0.026 C 
ENDROOT
BRANCH   1   2
ATOM      2  C   UNL     1      10.794  49.799  -2.358  1.00  0.00    +0.076 C 
ATOM      3  C   UNL     1      11.860  50.832  -1.983  1.00  0.00    +0.031 C 
BRANCH   2   4
ATOM      4  N   UNL     1      11.366  48.459  -2.154  1.00  0.00    -0.382 N 
ATOM      5  H   UNL     1      11.807  48.117  -3.002  1.00  0.00    +0.160 HD
BRANCH   4   6
ATOM      6  C   UNL     1      10.667  47.437  -1.484  1.00  0.00    +0.045 A 
ATOM      7  C   UNL     1      10.965  43.363  -2.625  1.00  0.00    +0.043 A 
ATOM      8  C   UNL     1      10.172  43.760  -1.553  1.00  0.00    +0.049 A 
ATOM      9  C   UNL     1      11.700  44.301  -3.334  1.00  0.00    +0.021 A 
ATOM     10  C   UNL     1      10.088  45.090  -1.170  1.00  0.00    +0.074 A 
ATOM     11  C   UNL     1      11.624  45.644  -2.968  1.00  0.00    +0.014 A 
ATOM     12  N   UNL     1       9.318  45.374  -0.113  1.00  0.00    -0.256 NA
ATOM     13  C   UNL     1      10.809  46.075  -1.890  1.00  0.00    +0.023 A 
ATOM     14  C   UNL     1       9.257  46.655   0.291  1.00  0.00    +0.114 A 
ATOM     15  C   UNL     1       9.913  47.695  -0.338  1.00  0.00    +0.046 A 
ATOM     16 Cl   UNL     1      11.044  41.702  -3.066  1.00  0.00    -0.084 Cl
ENDBRANCH   4   6
ENDBRANCH   2   4
ENDBRANCH   1   2
BRANCH   1  17
ATOM     17  C   UNL     1      10.402  48.769  -4.711  1.00  0.00    +0.018 C 
BRANCH  17  18
ATOM     18  C   UNL     1       9.035  48.262  -5.208  1.00  0.00    +0.084 C 
BRANCH  18  19
ATOM     19  N   UNL     1       7.913  48.520  -4.286  1.00  0.00    -0.304 NA
BRANCH  19  20
ATOM     20  C   UNL     1       7.599  47.328  -3.472  1.00  0.00    +0.081 C 
ATOM     21  C   UNL     1       7.894  46.027  -4.213  1.00  0.00    +0.021 C 
ENDBRANCH  19  20
BRANCH  19  22
ATOM     22  C   UNL     1       6.719  48.979  -5.023  1.00  0.00    +0.081 C 
ATOM     23  C   UNL     1       6.918  50.351  -5.660  1.00  0.00    +0.021 C 
ENDBRANCH  19  22
ENDBRANCH  18  19
ENDBRANCH  17  18
ENDBRANCH   1  17
TORSDOF 8
ENDMDL
MODEL 7
REMARK VINA RESULT:    -5.002      6.769      9.525
REMARK INTER + INTRA:          -8.082
REMARK INTER:                  -7.109
REMARK INTRA:                  -0.972
REMARK UNBOUND:                -0.741
REMARK SMILES CCN(CC)CCC[C@H](C)Nc1ccnc2cc(Cl)ccc12
REMARK SMILES IDX 8 1 9 2 10 3 11 4 12 6 18 7 17 8 20 9 16 10 21 11 15 12
REMARK SMILES IDX 22 13 14 14 13 15 19 16 7 17 6 18 3 19 2 20 1 21 4 22 5 23
REMARK H PARENT 11 5
ROOT
ATOM      1  C   UNL     1      14.555  57.337   5.513  1.00  0.00    +0.026 C 
ENDROOT
BRANCH   1   2
ATOM      2  C   UNL     1      13.792  57.026   4.210  1.00  0.00    +0.076 C 
ATOM      3  C   UNL     1      13.570  55.523   4.025  1.00  0.00    +0.031 C 
BRANCH   2   4
ATOM      4  N   UNL     1      14.497  57.532   3.021  1.00  0.00    -0.382 N 
ATOM      5  H   UNL     1      15.388  57.948   3.273  1.00  0.00    +0.160 HD
BRANCH   4   6
ATOM      6  C   UNL     1      13.844  58.274   2.018  1.00  0.00    +0.045 A 
ATOM      7  C   UNL     1      12.613  56.538  -1.650  1.00  0.00    +0.043 A 
ATOM      8  C   UNL     1      12.381  57.881  -1.369  1.00  0.00    +0.049 A 
ATOM      9  C   UNL     1      13.238  55.727  -0.715  1.00  0.00    +0.021 A 
ATOM     10  C   UNL     1      12.768  58.443  -0.163  1.00  0.00    +0.074 A 
ATOM     11  C   UNL     1      13.641  56.276   0.502  1.00  0.00    +0.014 A 
ATOM     12  N   UNL     1      12.483  59.737   0.027  1.00  0.00    -0.256 NA
ATOM     13  C   UNL     1      13.431  57.646   0.804  1.00  0.00    +0.023 A 
ATOM     14  C   UNL     1      12.820  60.286   1.208  1.00  0.00    +0.114 A 
ATOM     15  C   UNL     1      13.472  59.605   2.218  1.00  0.00    +0.046 A 
ATOM     16 Cl   UNL     1      12.114  55.877  -3.158  1.00  0.00    -0.084 Cl
ENDBRANCH   4   6
ENDBRANCH   2   4
ENDBRANCH   1   2
BRANCH   1  17
ATOM     17  C   UNL     1      14.519  58.809   5.954  1.00  0.00    +0.018 C 
BRANCH  17  18
ATOM     18  C   UNL     1      13.092  59.386   5.995  1.00  0.00    +0.084 C 
BRANCH  18  19
ATOM     19  N   UNL     1      12.336  59.066   7.221  1.00  0.00    -0.304 NA
BRANCH  19  20
ATOM     20  C   UNL     1      11.317  60.096   7.511  1.00  0.00    +0.081 C 
ATOM     21  C   UNL     1      11.369  61.255   6.520  1.00  0.00    +0.021 C 
ENDBRANCH  19  20
BRANCH  19  22
ATOM     22  C   UNL     1      13.246  58.894   8.371  1.00  0.00    +0.081 C 
ATOM     23  C   UNL     1      12.498  58.604   9.669  1.00  0.00    +0.021 C 
ENDBRANCH  19  22
ENDBRANCH  18  19
ENDBRANCH  17  18
ENDBRANCH   1  17
TORSDOF 8
ENDMDL
MODEL 8
REMARK VINA RESULT:    -4.909      9.012     12.201
REMARK INTER + INTRA:          -7.945
REMARK INTER:                  -6.537
REMARK INTRA:                  -1.408
REMARK UNBOUND:                -0.741
REMARK SMILES CCN(CC)CCC[C@H](C)Nc1ccnc2cc(Cl)ccc12
REMARK SMILES IDX 8 1 9 2 10 3 11 4 12 6 18 7 17 8 20 9 16 10 21 11 15 12
REMARK SMILES IDX 22 13 14 14 13 15 19 16 7 17 6 18 3 19 2 20 1 21 4 22 5 23
REMARK H PARENT 11 5
ROOT
ATOM      1  C   UNL     1      12.959  50.763  -2.031  1.00  0.00    +0.026 C 
ENDROOT
BRANCH   1   2
ATOM      2  C   UNL     1      12.793  49.330  -1.488  1.00  0.00    +0.076 C 
ATOM      3  C   UNL     1      14.098  48.535  -1.573  1.00  0.00    +0.031 C 
BRANCH   2   4
ATOM      4  N   UNL     1      11.755  48.580  -2.212  1.00  0.00    -0.382 N 
ATOM      5  H   UNL     1      11.240  49.185  -2.844  1.00  0.00    +0.160 HD
BRANCH   4   6
ATOM      6  C   UNL     1      10.905  47.659  -1.569  1.00  0.00    +0.045 A 
ATOM      7  C   UNL     1      10.936  43.520  -2.489  1.00  0.00    +0.043 A 
ATOM      8  C   UNL     1      10.085  44.040  -1.519  1.00  0.00    +0.049 A 
ATOM      9  C   UNL     1      11.817  44.351  -3.164  1.00  0.00    +0.021 A 
ATOM     10  C   UNL     1      10.087  45.392  -1.208  1.00  0.00    +0.074 A 
ATOM     11  C   UNL     1      11.831  45.714  -2.868  1.00  0.00    +0.014 A 
ATOM     12  N   UNL     1       9.250  45.798  -0.246  1.00  0.00    -0.256 NA
ATOM     13  C   UNL     1      10.960  46.271  -1.897  1.00  0.00    +0.023 A 
ATOM     14  C   UNL     1       9.269  47.099   0.093  1.00  0.00    +0.114 A 
ATOM     15  C   UNL     1      10.073  48.044  -0.515  1.00  0.00    +0.046 A 
ATOM     16 Cl   UNL     1      10.905  41.837  -2.845  1.00  0.00    -0.084 Cl
ENDBRANCH   4   6
ENDBRANCH   2   4
ENDBRANCH   1   2
BRANCH   1  17
ATOM     17  C   UNL     1      11.647  51.499  -2.343  1.00  0.00    +0.018 C 
BRANCH  17  18
ATOM     18  C   UNL     1      11.387  51.641  -3.855  1.00  0.00    +0.084 C 
BRANCH  18  19
ATOM     19  N   UNL     1      10.508  50.602  -4.426  1.00  0.00    -0.304 NA
BRANCH  19  20
ATOM     20  C   UNL     1      11.179  49.870  -5.520  1.00  0.00    +0.081 C 
ATOM     21  C   UNL     1      10.817  48.387  -5.530  1.00  0.00    +0.021 C 
ENDBRANCH  19  20
BRANCH  19  22
ATOM     22  C   UNL     1       9.235  51.186  -4.891  1.00  0.00    +0.081 C 
ATOM     23  C   UNL     1       9.383  52.642  -5.321  1.00  0.00    +0.021 C 
ENDBRANCH  19  22
ENDBRANCH  18  19
ENDBRANCH  17  18
ENDBRANCH   1  17
TORSDOF 8
ENDMDL
MODEL 9
REMARK VINA RESULT:    -4.907      9.943     12.947
REMARK INTER + INTRA:          -7.943
REMARK INTER:                  -7.063
REMARK INTRA:                  -0.880
REMARK UNBOUND:                -0.741
REMARK SMILES CCN(CC)CCC[C@H](C)Nc1ccnc2cc(Cl)ccc12
REMARK SMILES IDX 8 1 9 2 10 3 11 4 12 6 18 7 17 8 20 9 16 10 21 11 15 12
REMARK SMILES IDX 22 13 14 14 13 15 19 16 7 17 6 18 3 19 2 20 1 21 4 22 5 23
REMARK H PARENT 11 5
ROOT
ATOM      1  C   UNL     1      10.711  50.265  -3.693  1.00  0.00    +0.026 C 
ENDROOT
BRANCH   1   2
ATOM      2  C   UNL     1      11.087  50.730  -2.272  1.00  0.00    +0.076 C 
ATOM      3  C   UNL     1      12.179  51.801  -2.294  1.00  0.00    +0.031 C 
BRANCH   2   4
ATOM      4  N   UNL     1      11.555  49.618  -1.430  1.00  0.00    -0.382 N 
ATOM      5  H   UNL     1      12.521  49.385  -1.636  1.00  0.00    +0.160 HD
BRANCH   4   6
ATOM      6  C   UNL     1      10.780  48.464  -1.207  1.00  0.00    +0.045 A 
ATOM      7  C   UNL     1      11.748  44.714  -2.934  1.00  0.00    +0.043 A 
ATOM      8  C   UNL     1      10.643  44.865  -2.102  1.00  0.00    +0.049 A 
ATOM      9  C   UNL     1      12.577  45.793  -3.198  1.00  0.00    +0.021 A 
ATOM     10  C   UNL     1      10.337  46.088  -1.524  1.00  0.00    +0.074 A 
ATOM     11  C   UNL     1      12.282  47.033  -2.631  1.00  0.00    +0.014 A 
ATOM     12  N   UNL     1       9.268  46.133  -0.721  1.00  0.00    -0.256 NA
ATOM     13  C   UNL     1      11.151  47.216  -1.794  1.00  0.00    +0.023 A 
ATOM     14  C   UNL     1       8.982  47.304  -0.124  1.00  0.00    +0.114 A 
ATOM     15  C   UNL     1       9.703  48.467  -0.319  1.00  0.00    +0.046 A 
ATOM     16 Cl   UNL     1      12.096  43.179  -3.629  1.00  0.00    -0.084 Cl
ENDBRANCH   4   6
ENDBRANCH   2   4
ENDBRANCH   1   2
BRANCH   1  17
ATOM     17  C   UNL     1       9.526  51.006  -4.330  1.00  0.00    +0.018 C 
BRANCH  17  18
ATOM     18  C   UNL     1       8.524  50.056  -5.012  1.00  0.00    +0.084 C 
BRANCH  18  19
ATOM     19  N   UNL     1       7.287  50.707  -5.487  1.00  0.00    -0.304 NA
BRANCH  19  20
ATOM     20  C   UNL     1       6.091  49.916  -5.134  1.00  0.00    +0.081 C 
ATOM     21  C   UNL     1       5.210  49.628  -6.346  1.00  0.00    +0.021 C 
ENDBRANCH  19  20
BRANCH  19  22
ATOM     22  C   UNL     1       7.344  50.948  -6.942  1.00  0.00    +0.081 C 
ATOM     23  C   UNL     1       7.852  52.346  -7.283  1.00  0.00    +0.021 C 
ENDBRANCH  19  22
ENDBRANCH  18  19
ENDBRANCH  17  18
ENDBRANCH   1  17
TORSDOF 8
ENDMDL
