MODEL 1
REMARK VINA RESULT:    -5.556      0.000      0.000
REMARK INTER + INTRA:          -9.542
REMARK INTER:                  -8.155
REMARK INTRA:                  -1.388
REMARK UNBOUND:                -1.388
REMARK SMILES CCN(CC)CCC[C@H](C)Nc1ccnc2cc(Cl)ccc12
REMARK SMILES IDX 8 1 9 2 10 3 11 4 12 6 18 7 17 8 20 9 16 10 21 11 15 12
REMARK SMILES IDX 22 13 14 14 13 15 19 16 7 17 6 18 3 19 2 20 1 21 4 22 5 23
REMARK H PARENT 11 5
ROOT
ATOM      1  C   UNL     1       5.257  14.096   1.222  1.00  0.00    +0.026 C 
ENDROOT
BRANCH   1   2
ATOM      2  C   UNL     1       4.209  15.184   0.911  1.00  0.00    +0.076 C 
ATOM      3  C   UNL     1       4.089  16.200   2.049  1.00  0.00    +0.031 C 
BRANCH   2   4
ATOM      4  N   UNL     1       2.875  14.615   0.665  1.00  0.00    -0.382 N 
ATOM      5  H   UNL     1       2.705  13.811   1.261  1.00  0.00    +0.160 HD
BRANCH   4   6
ATOM      6  C   UNL     1       2.370  14.413  -0.634  1.00  0.00    +0.045 A 
ATOM      7  C   UNL     1      -1.214  12.268  -1.366  1.00  0.00    +0.043 A 
ATOM      8  C   UNL     1      -0.475  12.822  -2.406  1.00  0.00    +0.049 A 
ATOM      9  C   UNL     1      -0.799  12.428  -0.053  1.00  0.00    +0.021 A 
ATOM     10  C   UNL     1       0.688  13.538  -2.164  1.00  0.00    +0.074 A 
ATOM     11  C   UNL     1       0.371  13.140   0.211  1.00  0.00    +0.014 A 
ATOM     12  N   UNL     1       1.319  14.053  -3.226  1.00  0.00    -0.256 NA
ATOM     13  C   UNL     1       1.150  13.699  -0.834  1.00  0.00    +0.023 A 
ATOM     14  C   UNL     1       2.427  14.782  -3.003  1.00  0.00    +0.114 A 
ATOM     15  C   UNL     1       2.970  14.998  -1.750  1.00  0.00    +0.046 A 
ATOM     16 Cl   UNL     1      -2.653  11.389  -1.707  1.00  0.00    -0.084 Cl
ENDBRANCH   4   6
ENDBRANCH   2   4
ENDBRANCH   1   2
BRANCH   1  17
ATOM     17  C   UNL     1       5.809  13.352  -0.004  1.00  0.00    +0.018 C 
BRANCH  17  18
ATOM     18  C   UNL     1       5.175  11.962  -0.195  1.00  0.00    +0.084 C 
BRANCH  18  19
ATOM     19  N   UNL     1       5.800  11.143  -1.251  1.00  0.00    -0.304 NA
BRANCH  19  20
ATOM     20  C   UNL     1       7.201  11.546  -1.488  1.00  0.00    +0.081 C 
ATOM     21  C   UNL     1       7.514  11.701  -2.973  1.00  0.00    +0.021 C 
ENDBRANCH  19  20
BRANCH  19  22
ATOM     22  C   UNL     1       5.018  11.209  -2.501  1.00  0.00    +0.081 C 
ATOM     23  C   UNL     1       3.513  11.178  -2.251  1.00  0.00    +0.021 C 
ENDBRANCH  19  22
ENDBRANCH  18  19
ENDBRANCH  17  18
ENDBRANCH   1  17
TORSDOF 8
ENDMDL
MODEL 2
REMARK VINA RESULT:    -5.467      1.663      2.097
REMARK INTER + INTRA:          -9.412
REMARK INTER:                  -8.490
REMARK INTRA:                  -0.922
REMARK UNBOUND:                -1.388
REMARK SMILES CCN(CC)CCC[C@H](C)Nc1ccnc2cc(Cl)ccc12
REMARK SMILES IDX 8 1 9 2 10 3 11 4 12 6 18 7 17 8 20 9 16 10 21 11 15 12
REMARK SMILES IDX 22 13 14 14 13 15 19 16 7 17 6 18 3 19 2 20 1 21 4 22 5 23
REMARK H PARENT 11 5
ROOT
ATOM      1  C   UNL     1       4.657  14.153   0.991  1.00  0.00    +0.026 C 
ENDROOT
BRANCH   1   2
ATOM      2  C   UNL     1       3.302  14.583   0.395  1.00  0.00    +0.076 C 
ATOM      3  C   UNL     1       2.976  16.043   0.718  1.00  0.00    +0.031 C 
BRANCH   2   4
ATOM      4  N   UNL     1       2.192  13.750   0.882  1.00  0.00    -0.382 N 
ATOM      5  H   UNL     1       2.519  13.056   1.546  1.00  0.00    +0.160 HD
BRANCH   4   6
ATOM      6  C   UNL     1       1.214  13.219   0.019  1.00  0.00    +0.045 A 
ATOM      7  C   UNL     1      -2.937  13.549   0.822  1.00  0.00    +0.043 A 
ATOM      8  C   UNL     1      -2.469  12.914  -0.324  1.00  0.00    +0.049 A 
ATOM      9  C   UNL     1      -2.046  14.113   1.722  1.00  0.00    +0.021 A 
ATOM     10  C   UNL     1      -1.112  12.821  -0.594  1.00  0.00    +0.074 A 
ATOM     11  C   UNL     1      -0.677  14.025   1.471  1.00  0.00    +0.014 A 
ATOM     12  N   UNL     1      -0.756  12.212  -1.731  1.00  0.00    -0.256 NA
ATOM     13  C   UNL     1      -0.175  13.367   0.319  1.00  0.00    +0.023 A 
ATOM     14  C   UNL     1       0.555  12.149  -2.024  1.00  0.00    +0.114 A 
ATOM     15  C   UNL     1       1.554  12.642  -1.205  1.00  0.00    +0.046 A 
ATOM     16 Cl   UNL     1      -4.629  13.645   1.120  1.00  0.00    -0.084 Cl
ENDBRANCH   4   6
ENDBRANCH   2   4
ENDBRANCH   1   2
BRANCH   1  17
ATOM     17  C   UNL     1       5.597  13.427   0.016  1.00  0.00    +0.018 C 
BRANCH  17  18
ATOM     18  C   UNL     1       5.172  11.971  -0.252  1.00  0.00    +0.084 C 
BRANCH  18  19
ATOM     19  N   UNL     1       6.220  11.127  -0.857  1.00  0.00    -0.304 NA
BRANCH  19  20
ATOM     20  C   UNL     1       7.317  11.945  -1.414  1.00  0.00    +0.081 C 
ATOM     21  C   UNL     1       7.559  11.659  -2.893  1.00  0.00    +0.021 C 
ENDBRANCH  19  20
BRANCH  19  22
ATOM     22  C   UNL     1       5.652  10.242  -1.892  1.00  0.00    +0.081 C 
ATOM     23  C   UNL     1       4.261  10.684  -2.339  1.00  0.00    +0.021 C 
ENDBRANCH  19  22
ENDBRANCH  18  19
ENDBRANCH  17  18
ENDBRANCH   1  17
TORSDOF 8
ENDMDL
MODEL 3
REMARK VINA RESULT:    -5.407      3.027      5.273
REMARK INTER + INTRA:          -9.324
REMARK INTER:                  -8.158
REMARK INTRA:                  -1.165
REMARK UNBOUND:                -1.388
REMARK SMILES CCN(CC)CCC[C@H](C)Nc1ccnc2cc(Cl)ccc12
REMARK SMILES IDX 8 1 9 2 10 3 11 4 12 6 18 7 17 8 20 9 16 10 21 11 15 12
REMARK SMILES IDX 22 13 14 14 13 15 19 16 7 17 6 18 3 19 2 20 1 21 4 22 5 23
REMARK H PARENT 11 5
ROOT
ATOM      1  C   UNL     1       2.780  17.150   1.367  1.00  0.00    +0.026 C 
ENDROOT
BRANCH   1   2
ATOM      2  C   UNL     1       1.831  16.309   0.491  1.00  0.00    +0.076 C 
ATOM      3  C   UNL     1       0.382  16.789   0.599  1.00  0.00    +0.031 C 
BRANCH   2   4
ATOM      4  N   UNL     1       1.866  14.882   0.846  1.00  0.00    -0.382 N 
ATOM      5  H   UNL     1       2.493  14.715   1.627  1.00  0.00    +0.160 HD
BRANCH   4   6
ATOM      6  C   UNL     1       1.965  13.867  -0.125  1.00  0.00    +0.045 A 
ATOM      7  C   UNL     1       5.650  12.000  -1.084  1.00  0.00    +0.043 A 
ATOM      8  C   UNL     1       4.465  11.630  -1.711  1.00  0.00    +0.049 A 
ATOM      9  C   UNL     1       5.645  12.982  -0.105  1.00  0.00    +0.021 A 
ATOM     10  C   UNL     1       3.258  12.229  -1.385  1.00  0.00    +0.074 A 
ATOM     11  C   UNL     1       4.442  13.601   0.233  1.00  0.00    +0.014 A 
ATOM     12  N   UNL     1       2.167  11.792  -2.024  1.00  0.00    -0.256 NA
ATOM     13  C   UNL     1       3.224  13.252  -0.405  1.00  0.00    +0.023 A 
ATOM     14  C   UNL     1       0.984  12.338  -1.690  1.00  0.00    +0.114 A 
ATOM     15  C   UNL     1       0.835  13.344  -0.755  1.00  0.00    +0.046 A 
ATOM     16 Cl   UNL     1       7.127  11.230  -1.516  1.00  0.00    -0.084 Cl
ENDBRANCH   4   6
ENDBRANCH   2   4
ENDBRANCH   1   2
BRANCH   1  17
ATOM     17  C   UNL     1       3.892  17.887   0.604  1.00  0.00    +0.018 C 
BRANCH  17  18
ATOM     18  C   UNL     1       5.226  17.117   0.602  1.00  0.00    +0.084 C 
BRANCH  18  19
ATOM     19  N   UNL     1       5.968  17.173   1.877  1.00  0.00    -0.304 NA
BRANCH  19  20
ATOM     20  C   UNL     1       7.287  17.813   1.706  1.00  0.00    +0.081 C 
ATOM     21  C   UNL     1       7.527  18.270   0.269  1.00  0.00    +0.021 C 
ENDBRANCH  19  20
BRANCH  19  22
ATOM     22  C   UNL     1       6.112  15.825   2.462  1.00  0.00    +0.081 C 
ATOM     23  C   UNL     1       5.113  15.567   3.586  1.00  0.00    +0.021 C 
ENDBRANCH  19  22
ENDBRANCH  18  19
ENDBRANCH  17  18
ENDBRANCH   1  17
TORSDOF 8
ENDMDL
MODEL 4
REMARK VINA RESULT:    -5.335      2.768      6.158
REMARK INTER + INTRA:          -9.218
REMARK INTER:                  -7.942
REMARK INTRA:                  -1.276
REMARK UNBOUND:                -1.388
REMARK SMILES CCN(CC)CCC[C@H](C)Nc1ccnc2cc(Cl)ccc12
REMARK SMILES IDX 8 1 9 2 10 3 11 4 12 6 18 7 17 8 20 9 16 10 21 11 15 12
REMARK SMILES IDX 22 13 14 14 13 15 19 16 7 17 6 18 3 19 2 20 1 21 4 22 5 23
REMARK H PARENT 11 5
ROOT
ATOM      1  C   UNL     1      -0.348  15.248   0.556  1.00  0.00    +0.026 C 
ENDROOT
BRANCH   1   2
ATOM      2  C   UNL     1       1.149  15.609   0.475  1.00  0.00    +0.076 C 
ATOM      3  C   UNL     1       1.615  15.783  -0.972  1.00  0.00    +0.031 C 
BRANCH   2   4
ATOM      4  N   UNL     1       2.000  14.591   1.109  1.00  0.00    -0.382 N 
ATOM      5  H   UNL     1       1.607  14.285   1.994  1.00  0.00    +0.160 HD
BRANCH   4   6
ATOM      6  C   UNL     1       3.400  14.718   1.181  1.00  0.00    +0.045 A 
ATOM      7  C   UNL     1       6.022  12.166  -0.962  1.00  0.00    +0.043 A 
ATOM      8  C   UNL     1       6.507  13.188  -0.153  1.00  0.00    +0.049 A 
ATOM      9  C   UNL     1       4.656  11.974  -1.103  1.00  0.00    +0.021 A 
ATOM     10  C   UNL     1       5.648  14.033   0.534  1.00  0.00    +0.074 A 
ATOM     11  C   UNL     1       3.777  12.810  -0.416  1.00  0.00    +0.014 A 
ATOM     12  N   UNL     1       6.205  15.002   1.270  1.00  0.00    -0.256 NA
ATOM     13  C   UNL     1       4.247  13.848   0.429  1.00  0.00    +0.023 A 
ATOM     14  C   UNL     1       5.384  15.852   1.911  1.00  0.00    +0.114 A 
ATOM     15  C   UNL     1       4.005  15.762   1.884  1.00  0.00    +0.046 A 
ATOM     16 Cl   UNL     1       7.120  11.140  -1.801  1.00  0.00    -0.084 Cl
ENDBRANCH   4   6
ENDBRANCH   2   4
ENDBRANCH   1   2
BRANCH   1  17
ATOM     17  C   UNL     1      -0.651  13.839   1.088  1.00  0.00    +0.018 C 
BRANCH  17  18
ATOM     18  C   UNL     1      -0.639  12.767  -0.017  1.00  0.00    +0.084 C 
BRANCH  18  19
ATOM     19  N   UNL     1      -1.489  13.078  -1.182  1.00  0.00    -0.304 NA
BRANCH  19  20
ATOM     20  C   UNL     1      -2.742  12.296  -1.160  1.00  0.00    +0.081 C 
ATOM     21  C   UNL     1      -2.566  10.942  -0.478  1.00  0.00    +0.021 C 
ENDBRANCH  19  20
BRANCH  19  22
ATOM     22  C   UNL     1      -0.756  12.855  -2.444  1.00  0.00    +0.081 C 
ATOM     23  C   UNL     1       0.677  12.383  -2.211  1.00  0.00    +0.021 C 
ENDBRANCH  19  22
ENDBRANCH  18  19
ENDBRANCH  17  18
ENDBRANCH   1  17
TORSDOF 8
ENDMDL
MODEL 5
REMARK VINA RESULT:    -5.294      3.347      5.696
REMARK INTER + INTRA:          -9.158
REMARK INTER:                  -8.159
REMARK INTRA:                  -0.999
REMARK UNBOUND:                -1.388
REMARK SMILES CCN(CC)CCC[C@H](C)Nc1ccnc2cc(Cl)ccc12
REMARK SMILES IDX 8 1 9 2 10 3 11 4 12 6 18 7 17 8 20 9 16 10 21 11 15 12
REMARK SMILES IDX 22 13 14 14 13 15 19 16 7 17 6 18 3 19 2 20 1 21 4 22 5 23
REMARK H PARENT 11 5
ROOT
ATOM      1  C   UNL     1       3.978  13.276  -0.843  1.00  0.00    +0.026 C 
ENDROOT
BRANCH   1   2
ATOM      2  C   UNL     1       2.755  13.402   0.086  1.00  0.00    +0.076 C 
ATOM      3  C   UNL     1       1.443  13.166  -0.666  1.00  0.00    +0.031 C 
BRANCH   2   4
ATOM      4  N   UNL     1       2.680  14.724   0.728  1.00  0.00    -0.382 N 
ATOM      5  H   UNL     1       2.170  15.383   0.150  1.00  0.00    +0.160 HD
BRANCH   4   6
ATOM      6  C   UNL     1       3.796  15.327   1.341  1.00  0.00    +0.045 A 
ATOM      7  C   UNL     1       5.960  18.478  -0.494  1.00  0.00    +0.043 A 
ATOM      8  C   UNL     1       6.314  17.990   0.760  1.00  0.00    +0.049 A 
ATOM      9  C   UNL     1       4.867  17.953  -1.165  1.00  0.00    +0.021 A 
ATOM     10  C   UNL     1       5.595  16.971   1.366  1.00  0.00    +0.074 A 
ATOM     11  C   UNL     1       4.135  16.923  -0.575  1.00  0.00    +0.014 A 
ATOM     12  N   UNL     1       5.995  16.582   2.583  1.00  0.00    -0.256 NA
ATOM     13  C   UNL     1       4.486  16.397   0.695  1.00  0.00    +0.023 A 
ATOM     14  C   UNL     1       5.284  15.621   3.198  1.00  0.00    +0.114 A 
ATOM     15  C   UNL     1       4.191  14.989   2.636  1.00  0.00    +0.046 A 
ATOM     16 Cl   UNL     1       6.877  19.745  -1.212  1.00  0.00    -0.084 Cl
ENDBRANCH   4   6
ENDBRANCH   2   4
ENDBRANCH   1   2
BRANCH   1  17
ATOM     17  C   UNL     1       4.347  11.839  -1.244  1.00  0.00    +0.018 C 
BRANCH  17  18
ATOM     18  C   UNL     1       5.224  11.778  -2.509  1.00  0.00    +0.084 C 
BRANCH  18  19
ATOM     19  N   UNL     1       6.566  11.201  -2.297  1.00  0.00    -0.304 NA
BRANCH  19  20
ATOM     20  C   UNL     1       7.028  11.404  -0.909  1.00  0.00    +0.081 C 
ATOM     21  C   UNL     1       7.895  12.652  -0.766  1.00  0.00    +0.021 C 
ENDBRANCH  19  20
BRANCH  19  22
ATOM     22  C   UNL     1       7.537  11.759  -3.259  1.00  0.00    +0.081 C 
ATOM     23  C   UNL     1       6.873  12.235  -4.549  1.00  0.00    +0.021 C 
ENDBRANCH  19  22
ENDBRANCH  18  19
ENDBRANCH  17  18
ENDBRANCH   1  17
TORSDOF 8
ENDMDL
MODEL 6
REMARK VINA RESULT:    -5.253      3.380      7.664
REMARK INTER + INTRA:          -9.098
REMARK INTER:                  -8.172
REMARK INTRA:                  -0.926
REMARK UNBOUND:                -1.388
REMARK SMILES CCN(CC)CCC[C@H](C)Nc1ccnc2cc(Cl)ccc12
REMARK SMILES IDX 8 1 9 2 10 3 11 4 12 6 18 7 17 8 20 9 16 10 21 11 15 12
REMARK SMILES IDX 22 13 14 14 13 15 19 16 7 17 6 18 3 19 2 20 1 21 4 22 5 23
REMARK H PARENT 11 5
ROOT
ATOM      1  C   UNL     1      -1.967  11.175  -1.946  1.00  0.00    +0.026 C 
ENDROOT
BRANCH   1   2
ATOM      2  C   UNL     1      -1.043  12.313  -2.422  1.00  0.00    +0.076 C 
ATOM      3  C   UNL     1      -1.320  12.702  -3.876  1.00  0.00    +0.031 C 
BRANCH   2   4
ATOM      4  N   UNL     1       0.380  11.956  -2.309  1.00  0.00    -0.382 N 
ATOM      5  H   UNL     1       0.506  10.949  -2.314  1.00  0.00    +0.160 HD
BRANCH   4   6
ATOM      6  C   UNL     1       1.243  12.581  -1.388  1.00  0.00    +0.045 A 
ATOM      7  C   UNL     1       5.412  11.810  -1.303  1.00  0.00    +0.043 A 
ATOM      8  C   UNL     1       4.823  12.710  -0.420  1.00  0.00    +0.049 A 
ATOM      9  C   UNL     1       4.641  11.158  -2.253  1.00  0.00    +0.021 A 
ATOM     10  C   UNL     1       3.462  12.974  -0.460  1.00  0.00    +0.074 A 
ATOM     11  C   UNL     1       3.270  11.406  -2.305  1.00  0.00    +0.014 A 
ATOM     12  N   UNL     1       2.988  13.871   0.413  1.00  0.00    -0.256 NA
ATOM     13  C   UNL     1       2.644  12.306  -1.405  1.00  0.00    +0.023 A 
ATOM     14  C   UNL     1       1.677  14.164   0.360  1.00  0.00    +0.114 A 
ATOM     15  C   UNL     1       0.788  13.571  -0.515  1.00  0.00    +0.046 A 
ATOM     16 Cl   UNL     1       7.104  11.511  -1.222  1.00  0.00    -0.084 Cl
ENDBRANCH   4   6
ENDBRANCH   2   4
ENDBRANCH   1   2
BRANCH   1  17
ATOM     17  C   UNL     1      -2.488  11.316  -0.507  1.00  0.00    +0.018 C 
BRANCH  17  18
ATOM     18  C   UNL     1      -3.150  12.681  -0.243  1.00  0.00    +0.084 C 
BRANCH  18  19
ATOM     19  N   UNL     1      -4.519  12.812  -0.777  1.00  0.00    -0.304 NA
BRANCH  19  20
ATOM     20  C   UNL     1      -4.549  13.664  -1.983  1.00  0.00    +0.081 C 
ATOM     21  C   UNL     1      -5.963  13.847  -2.528  1.00  0.00    +0.021 C 
ENDBRANCH  19  20
BRANCH  19  22
ATOM     22  C   UNL     1      -5.440  13.332   0.253  1.00  0.00    +0.081 C 
ATOM     23  C   UNL     1      -4.904  13.134   1.668  1.00  0.00    +0.021 C 
ENDBRANCH  19  22
ENDBRANCH  18  19
ENDBRANCH  17  18
ENDBRANCH   1  17
TORSDOF 8
ENDMDL
MODEL 7
REMARK VINA RESULT:    -5.245      3.036      6.779
REMARK INTER + INTRA:          -9.086
REMARK INTER:                  -8.138
REMARK INTRA:                  -0.948
REMARK UNBOUND:                -1.388
REMARK SMILES CCN(CC)CCC[C@H](C)Nc1ccnc2cc(Cl)ccc12
REMARK SMILES IDX 8 1 9 2 10 3 11 4 12 6 18 7 17 8 20 9 16 10 21 11 15 12
REMARK SMILES IDX 22 13 14 14 13 15 19 16 7 17 6 18 3 19 2 20 1 21 4 22 5 23
REMARK H PARENT 11 5
ROOT
ATOM      1  C   UNL     1      -1.020  13.799   0.206  1.00  0.00    +0.026 C 
ENDROOT
BRANCH   1   2
ATOM      2  C   UNL     1       0.406  14.371   0.075  1.00  0.00    +0.076 C 
ATOM      3  C   UNL     1       0.624  15.051  -1.278  1.00  0.00    +0.031 C 
BRANCH   2   4
ATOM      4  N   UNL     1       1.437  13.333   0.235  1.00  0.00    -0.382 N 
ATOM      5  H   UNL     1       1.093  12.559   0.794  1.00  0.00    +0.160 HD
BRANCH   4   6
ATOM      6  C   UNL     1       2.775  13.643   0.546  1.00  0.00    +0.045 A 
ATOM      7  C   UNL     1       6.041  11.975  -1.582  1.00  0.00    +0.043 A 
ATOM      8  C   UNL     1       6.239  12.872  -0.538  1.00  0.00    +0.049 A 
ATOM      9  C   UNL     1       4.757  11.622  -1.966  1.00  0.00    +0.021 A 
ATOM     10  C   UNL     1       5.170  13.430   0.146  1.00  0.00    +0.074 A 
ATOM     11  C   UNL     1       3.668  12.168  -1.287  1.00  0.00    +0.014 A 
ATOM     12  N   UNL     1       5.456  14.301   1.121  1.00  0.00    -0.256 NA
ATOM     13  C   UNL     1       3.845  13.072  -0.208  1.00  0.00    +0.023 A 
ATOM     14  C   UNL     1       4.428  14.878   1.767  1.00  0.00    +0.114 A 
ATOM     15  C   UNL     1       3.099  14.600   1.509  1.00  0.00    +0.046 A 
ATOM     16 Cl   UNL     1       7.395  11.306  -2.408  1.00  0.00    -0.084 Cl
ENDBRANCH   4   6
ENDBRANCH   2   4
ENDBRANCH   1   2
BRANCH   1  17
ATOM     17  C   UNL     1      -1.177  12.333  -0.227  1.00  0.00    +0.018 C 
BRANCH  17  18
ATOM     18  C   UNL     1      -2.626  11.827  -0.110  1.00  0.00    +0.084 C 
BRANCH  18  19
ATOM     19  N   UNL     1      -3.347  11.728  -1.394  1.00  0.00    -0.304 NA
BRANCH  19  20
ATOM     20  C   UNL     1      -2.424  11.443  -2.511  1.00  0.00    +0.081 C 
ATOM     21  C   UNL     1      -2.896  12.060  -3.824  1.00  0.00    +0.021 C 
ENDBRANCH  19  20
BRANCH  19  22
ATOM     22  C   UNL     1      -4.124  12.955  -1.658  1.00  0.00    +0.081 C 
ATOM     23  C   UNL     1      -4.979  13.373  -0.465  1.00  0.00    +0.021 C 
ENDBRANCH  19  22
ENDBRANCH  18  19
ENDBRANCH  17  18
ENDBRANCH   1  17
TORSDOF 8
ENDMDL
MODEL 8
REMARK VINA RESULT:    -5.135      2.551      4.253
REMARK INTER + INTRA:          -8.924
REMARK INTER:                  -8.132
REMARK INTRA:                  -0.792
REMARK UNBOUND:                -1.388
REMARK SMILES CCN(CC)CCC[C@H](C)Nc1ccnc2cc(Cl)ccc12
REMARK SMILES IDX 8 1 9 2 10 3 11 4 12 6 18 7 17 8 20 9 16 10 21 11 15 12
REMARK SMILES IDX 22 13 14 14 13 15 19 16 7 17 6 18 3 19 2 20 1 21 4 22 5 23
REMARK H PARENT 11 5
ROOT
ATOM      1  C   UNL     1       2.735  13.255  -1.972  1.00  0.00    +0.026 C 
ENDROOT
BRANCH   1   2
ATOM      2  C   UNL     1       1.197  13.241  -2.071  1.00  0.00    +0.076 C 
ATOM      3  C   UNL     1       0.638  14.614  -2.451  1.00  0.00    +0.031 C 
BRANCH   2   4
ATOM      4  N   UNL     1       0.564  12.824  -0.810  1.00  0.00    -0.382 N 
ATOM      5  H   UNL     1       1.139  12.148  -0.318  1.00  0.00    +0.160 HD
BRANCH   4   6
ATOM      6  C   UNL     1      -0.804  12.499  -0.725  1.00  0.00    +0.045 A 
ATOM      7  C   UNL     1      -3.374  14.245   2.160  1.00  0.00    +0.043 A 
ATOM      8  C   UNL     1      -3.847  13.321   1.233  1.00  0.00    +0.049 A 
ATOM      9  C   UNL     1      -2.044  14.635   2.143  1.00  0.00    +0.021 A 
ATOM     10  C   UNL     1      -3.009  12.764   0.279  1.00  0.00    +0.074 A 
ATOM     11  C   UNL     1      -1.184  14.081   1.195  1.00  0.00    +0.014 A 
ATOM     12  N   UNL     1      -3.557  11.901  -0.585  1.00  0.00    -0.256 NA
ATOM     13  C   UNL     1      -1.638  13.124   0.251  1.00  0.00    +0.023 A 
ATOM     14  C   UNL     1      -2.764  11.382  -1.539  1.00  0.00    +0.114 A 
ATOM     15  C   UNL     1      -1.415  11.658  -1.656  1.00  0.00    +0.046 A 
ATOM     16 Cl   UNL     1      -4.447  14.916   3.326  1.00  0.00    -0.084 Cl
ENDBRANCH   4   6
ENDBRANCH   2   4
ENDBRANCH   1   2
BRANCH   1  17
ATOM     17  C   UNL     1       3.406  11.875  -2.034  1.00  0.00    +0.018 C 
BRANCH  17  18
ATOM     18  C   UNL     1       4.915  11.957  -2.331  1.00  0.00    +0.084 C 
BRANCH  18  19
ATOM     19  N   UNL     1       5.782  11.466  -1.243  1.00  0.00    -0.304 NA
BRANCH  19  20
ATOM     20  C   UNL     1       5.402  12.055   0.057  1.00  0.00    +0.081 C 
ATOM     21  C   UNL     1       5.830  13.515   0.177  1.00  0.00    +0.021 C 
ENDBRANCH  19  20
BRANCH  19  22
ATOM     22  C   UNL     1       7.204  11.730  -1.541  1.00  0.00    +0.081 C 
ATOM     23  C   UNL     1       7.496  11.725  -3.039  1.00  0.00    +0.021 C 
ENDBRANCH  19  22
ENDBRANCH  18  19
ENDBRANCH  17  18
ENDBRANCH   1  17
TORSDOF 8
ENDMDL
MODEL 9
REMARK VINA RESULT:    -5.027      3.013      6.854
REMARK INTER + INTRA:          -8.766
REMARK INTER:                  -7.485
REMARK INTRA:                  -1.281
REMARK UNBOUND:                -1.388
REMARK SMILES CCN(CC)CCC[C@H](C)Nc1ccnc2cc(Cl)ccc12
REMARK SMILES IDX 8 1 9 2 10 3 11 4 12 6 18 7 17 8 20 9 16 10 21 11 15 12
REMARK SMILES IDX 22 13 14 14 13 15 19 16 7 17 6 18 3 19 2 20 1 21 4 22 5 23
REMARK H PARENT 11 5
ROOT
ATOM      1  C   UNL     1      -0.448  14.454  -0.887  1.00  0.00    +0.026 C 
ENDROOT
BRANCH   1   2
ATOM      2  C   UNL     1       0.572  13.862  -1.880  1.00  0.00    +0.076 C 
ATOM      3  C   UNL     1      -0.098  13.408  -3.179  1.00  0.00    +0.031 C 
BRANCH   2   4
ATOM      4  N   UNL     1       1.295  12.713  -1.314  1.00  0.00    -0.382 N 
ATOM      5  H   UNL     1       0.904  12.440  -0.419  1.00  0.00    +0.160 HD
BRANCH   4   6
ATOM      6  C   UNL     1       2.701  12.637  -1.311  1.00  0.00    +0.045 A 
ATOM      7  C   UNL     1       5.077  14.712   1.524  1.00  0.00    +0.043 A 
ATOM      8  C   UNL     1       5.653  13.906   0.548  1.00  0.00    +0.049 A 
ATOM      9  C   UNL     1       3.698  14.836   1.604  1.00  0.00    +0.021 A 
ATOM     10  C   UNL     1       4.874  13.214  -0.368  1.00  0.00    +0.074 A 
ATOM     11  C   UNL     1       2.898  14.153   0.688  1.00  0.00    +0.014 A 
ATOM     12  N   UNL     1       5.515  12.445  -1.257  1.00  0.00    -0.256 NA
ATOM     13  C   UNL     1       3.463  13.339  -0.327  1.00  0.00    +0.023 A 
ATOM     14  C   UNL     1       4.771  11.740  -2.126  1.00  0.00    +0.114 A 
ATOM     15  C   UNL     1       3.391  11.789  -2.180  1.00  0.00    +0.046 A 
ATOM     16 Cl   UNL     1       6.077  15.552   2.644  1.00  0.00    -0.084 Cl
ENDBRANCH   4   6
ENDBRANCH   2   4
ENDBRANCH   1   2
BRANCH   1  17
ATOM     17  C   UNL     1      -0.722  13.593   0.356  1.00  0.00    +0.018 C 
BRANCH  17  18
ATOM     18  C   UNL     1      -1.966  12.699   0.201  1.00  0.00    +0.084 C 
BRANCH  18  19
ATOM     19  N   UNL     1      -2.940  13.173  -0.802  1.00  0.00    -0.304 NA
BRANCH  19  20
ATOM     20  C   UNL     1      -4.186  13.644  -0.165  1.00  0.00    +0.081 C 
ATOM     21  C   UNL     1      -4.629  12.738   0.980  1.00  0.00    +0.021 C 
ENDBRANCH  19  20
BRANCH  19  22
ATOM     22  C   UNL     1      -3.227  12.119  -1.796  1.00  0.00    +0.081 C 
ATOM     23  C   UNL     1      -2.417  10.849  -1.550  1.00  0.00    +0.021 C 
ENDBRANCH  19  22
ENDBRANCH  18  19
ENDBRANCH  17  18
ENDBRANCH   1  17
TORSDOF 8
ENDMDL
