MODEL 1
REMARK VINA RESULT:    -6.944      0.000      0.000
REMARK INTER + INTRA:         -11.048
REMARK INTER:                 -10.192
REMARK INTRA:                  -0.856
REMARK UNBOUND:                -0.856
REMARK SMILES CCN(CC)CCC[C@H](C)Nc1ccnc2cc(Cl)ccc12
REMARK SMILES IDX 8 1 9 2 10 3 11 4 12 6 18 7 17 8 20 9 16 10 21 11 15 12
REMARK SMILES IDX 22 13 14 14 13 15 19 16 7 17 6 18 3 19 2 20 1 21 4 22 5 23
REMARK H PARENT 11 5
ROOT
ATOM      1  C   UNL     1     -20.977  13.531 -30.649  1.00  0.00    +0.026 C 
ENDROOT
BRANCH   1   2
ATOM      2  C   UNL     1     -22.026  12.502 -30.181  1.00  0.00    +0.076 C 
ATOM      3  C   UNL     1     -22.236  11.393 -31.216  1.00  0.00    +0.031 C 
BRANCH   2   4
ATOM      4  N   UNL     1     -23.331  13.124 -29.909  1.00  0.00    -0.382 N 
ATOM      5  H   UNL     1     -23.552  13.829 -30.604  1.00  0.00    +0.160 HD
BRANCH   4   6
ATOM      6  C   UNL     1     -23.714  13.533 -28.617  1.00  0.00    +0.045 A 
ATOM      7  C   UNL     1     -26.047  11.079 -26.063  1.00  0.00    +0.043 A 
ATOM      8  C   UNL     1     -25.610  12.336 -25.659  1.00  0.00    +0.049 A 
ATOM      9  C   UNL     1     -25.706  10.589 -27.314  1.00  0.00    +0.021 A 
ATOM     10  C   UNL     1     -24.833  13.131 -26.489  1.00  0.00    +0.074 A 
ATOM     11  C   UNL     1     -24.930  11.376 -28.165  1.00  0.00    +0.014 A 
ATOM     12  N   UNL     1     -24.440  14.315 -26.006  1.00  0.00    -0.256 NA
ATOM     13  C   UNL     1     -24.486  12.668 -27.783  1.00  0.00    +0.023 A 
ATOM     14  C   UNL     1     -23.654  15.080 -26.785  1.00  0.00    +0.114 A 
ATOM     15  C   UNL     1     -23.261  14.731 -28.063  1.00  0.00    +0.046 A 
ATOM     16 Cl   UNL     1     -27.008  10.122 -25.004  1.00  0.00    -0.084 Cl
ENDBRANCH   4   6
ENDBRANCH   2   4
ENDBRANCH   1   2
BRANCH   1  17
ATOM     17  C   UNL     1     -19.781  13.719 -29.704  1.00  0.00    +0.018 C 
BRANCH  17  18
ATOM     18  C   UNL     1     -18.431  13.418 -30.382  1.00  0.00    +0.084 C 
BRANCH  18  19
ATOM     19  N   UNL     1     -17.295  13.276 -29.450  1.00  0.00    -0.304 NA
BRANCH  19  20
ATOM     20  C   UNL     1     -17.728  13.418 -28.045  1.00  0.00    +0.081 C 
ATOM     21  C   UNL     1     -17.338  12.213 -27.195  1.00  0.00    +0.021 C 
ENDBRANCH  19  20
BRANCH  19  22
ATOM     22  C   UNL     1     -16.228  14.244 -29.770  1.00  0.00    +0.081 C 
ATOM     23  C   UNL     1     -14.842  13.604 -29.778  1.00  0.00    +0.021 C 
ENDBRANCH  19  22
ENDBRANCH  18  19
ENDBRANCH  17  18
ENDBRANCH   1  17
TORSDOF 8
ENDMDL
MODEL 2
REMARK VINA RESULT:    -6.919      5.651      8.839
REMARK INTER + INTRA:         -11.011
REMARK INTER:                  -9.800
REMARK INTRA:                  -1.211
REMARK UNBOUND:                -0.856
REMARK SMILES CCN(CC)CCC[C@H](C)Nc1ccnc2cc(Cl)ccc12
REMARK SMILES IDX 8 1 9 2 10 3 11 4 12 6 18 7 17 8 20 9 16 10 21 11 15 12
REMARK SMILES IDX 22 13 14 14 13 15 19 16 7 17 6 18 3 19 2 20 1 21 4 22 5 23
REMARK H PARENT 11 5
ROOT
ATOM      1  C   UNL     1     -28.248  15.586 -25.721  1.00  0.00    +0.026 C 
ENDROOT
BRANCH   1   2
ATOM      2  C   UNL     1     -28.861  15.573 -24.307  1.00  0.00    +0.076 C 
ATOM      3  C   UNL     1     -28.585  16.878 -23.555  1.00  0.00    +0.031 C 
BRANCH   2   4
ATOM      4  N   UNL     1     -28.350  14.460 -23.491  1.00  0.00    -0.382 N 
ATOM      5  H   UNL     1     -28.476  13.572 -23.965  1.00  0.00    +0.160 HD
BRANCH   4   6
ATOM      6  C   UNL     1     -28.615  14.354 -22.112  1.00  0.00    +0.045 A 
ATOM      7  C   UNL     1     -32.362  13.045 -20.619  1.00  0.00    +0.043 A 
ATOM      8  C   UNL     1     -31.319  13.385 -19.763  1.00  0.00    +0.049 A 
ATOM      9  C   UNL     1     -32.187  13.107 -21.992  1.00  0.00    +0.021 A 
ATOM     10  C   UNL     1     -30.089  13.797 -20.252  1.00  0.00    +0.074 A 
ATOM     11  C   UNL     1     -30.958  13.524 -22.504  1.00  0.00    +0.014 A 
ATOM     12  N   UNL     1     -29.139  14.081 -19.354  1.00  0.00    -0.256 NA
ATOM     13  C   UNL     1     -29.886  13.892 -21.652  1.00  0.00    +0.023 A 
ATOM     14  C   UNL     1     -27.929  14.446 -19.816  1.00  0.00    +0.114 A 
ATOM     15  C   UNL     1     -27.622  14.577 -21.157  1.00  0.00    +0.046 A 
ATOM     16 Cl   UNL     1     -33.873  12.536 -19.971  1.00  0.00    -0.084 Cl
ENDBRANCH   4   6
ENDBRANCH   2   4
ENDBRANCH   1   2
BRANCH   1  17
ATOM     17  C   UNL     1     -26.919  16.348 -25.849  1.00  0.00    +0.018 C 
BRANCH  17  18
ATOM     18  C   UNL     1     -25.710  15.412 -26.033  1.00  0.00    +0.084 C 
BRANCH  18  19
ATOM     19  N   UNL     1     -25.701  14.239 -25.138  1.00  0.00    -0.304 NA
BRANCH  19  20
ATOM     20  C   UNL     1     -24.786  14.439 -23.996  1.00  0.00    +0.081 C 
ATOM     21  C   UNL     1     -24.726  13.217 -23.083  1.00  0.00    +0.021 C 
ENDBRANCH  19  20
BRANCH  19  22
ATOM     22  C   UNL     1     -25.350  13.012 -25.881  1.00  0.00    +0.081 C 
ATOM     23  C   UNL     1     -24.403  13.285 -27.046  1.00  0.00    +0.021 C 
ENDBRANCH  19  22
ENDBRANCH  18  19
ENDBRANCH  17  18
ENDBRANCH   1  17
TORSDOF 8
ENDMDL
MODEL 3
REMARK VINA RESULT:    -6.878      4.609      8.206
REMARK INTER + INTRA:         -10.950
REMARK INTER:                  -9.652
REMARK INTRA:                  -1.298
REMARK UNBOUND:                -0.856
REMARK SMILES CCN(CC)CCC[C@H](C)Nc1ccnc2cc(Cl)ccc12
REMARK SMILES IDX 8 1 9 2 10 3 11 4 12 6 18 7 17 8 20 9 16 10 21 11 15 12
REMARK SMILES IDX 22 13 14 14 13 15 19 16 7 17 6 18 3 19 2 20 1 21 4 22 5 23
REMARK H PARENT 11 5
ROOT
ATOM      1  C   UNL     1     -28.145  15.936 -23.332  1.00  0.00    +0.026 C 
ENDROOT
BRANCH   1   2
ATOM      2  C   UNL     1     -28.587  15.557 -24.759  1.00  0.00    +0.076 C 
ATOM      3  C   UNL     1     -29.900  14.771 -24.758  1.00  0.00    +0.031 C 
BRANCH   2   4
ATOM      4  N   UNL     1     -27.574  14.752 -25.459  1.00  0.00    -0.382 N 
ATOM      5  H   UNL     1     -27.210  14.019 -24.858  1.00  0.00    +0.160 HD
BRANCH   4   6
ATOM      6  C   UNL     1     -26.557  15.334 -26.239  1.00  0.00    +0.045 A 
ATOM      7  C   UNL     1     -24.012  13.032 -28.731  1.00  0.00    +0.043 A 
ATOM      8  C   UNL     1     -23.889  14.415 -28.650  1.00  0.00    +0.049 A 
ATOM      9  C   UNL     1     -24.995  12.375 -28.007  1.00  0.00    +0.021 A 
ATOM     10  C   UNL     1     -24.733  15.169 -27.848  1.00  0.00    +0.074 A 
ATOM     11  C   UNL     1     -25.850  13.114 -27.190  1.00  0.00    +0.014 A 
ATOM     12  N   UNL     1     -24.555  16.495 -27.851  1.00  0.00    -0.256 NA
ATOM     13  C   UNL     1     -25.733  14.524 -27.078  1.00  0.00    +0.023 A 
ATOM     14  C   UNL     1     -25.390  17.241 -27.107  1.00  0.00    +0.114 A 
ATOM     15  C   UNL     1     -26.395  16.719 -26.315  1.00  0.00    +0.046 A 
ATOM     16 Cl   UNL     1     -22.947  12.133 -29.740  1.00  0.00    -0.084 Cl
ENDBRANCH   4   6
ENDBRANCH   2   4
ENDBRANCH   1   2
BRANCH   1  17
ATOM     17  C   UNL     1     -28.151  14.781 -22.319  1.00  0.00    +0.018 C 
BRANCH  17  18
ATOM     18  C   UNL     1     -26.738  14.388 -21.852  1.00  0.00    +0.084 C 
BRANCH  18  19
ATOM     19  N   UNL     1     -26.386  12.973 -22.085  1.00  0.00    -0.304 NA
BRANCH  19  20
ATOM     20  C   UNL     1     -25.412  12.834 -23.187  1.00  0.00    +0.081 C 
ATOM     21  C   UNL     1     -24.599  14.106 -23.404  1.00  0.00    +0.021 C 
ENDBRANCH  19  20
BRANCH  19  22
ATOM     22  C   UNL     1     -27.594  12.167 -22.349  1.00  0.00    +0.081 C 
ATOM     23  C   UNL     1     -27.764  11.025 -21.350  1.00  0.00    +0.021 C 
ENDBRANCH  19  22
ENDBRANCH  18  19
ENDBRANCH  17  18
ENDBRANCH   1  17
TORSDOF 8
ENDMDL
MODEL 4
REMARK VINA RESULT:    -6.874      4.130      8.209
REMARK INTER + INTRA:         -10.945
REMARK INTER:                  -9.807
REMARK INTRA:                  -1.137
REMARK UNBOUND:                -0.856
REMARK SMILES CCN(CC)CCC[C@H](C)Nc1ccnc2cc(Cl)ccc12
REMARK SMILES IDX 8 1 9 2 10 3 11 4 12 6 18 7 17 8 20 9 16 10 21 11 15 12
REMARK SMILES IDX 22 13 14 14 13 15 19 16 7 17 6 18 3 19 2 20 1 21 4 22 5 23
REMARK H PARENT 11 5
ROOT
ATOM      1  C   UNL     1     -24.927  13.017 -24.395  1.00  0.00    +0.026 C 
ENDROOT
BRANCH   1   2
ATOM      2  C   UNL     1     -26.290  12.609 -24.989  1.00  0.00    +0.076 C 
ATOM      3  C   UNL     1     -26.372  11.102 -25.242  1.00  0.00    +0.031 C 
BRANCH   2   4
ATOM      4  N   UNL     1     -26.573  13.301 -26.256  1.00  0.00    -0.382 N 
ATOM      5  H   UNL     1     -26.912  12.652 -26.959  1.00  0.00    +0.160 HD
BRANCH   4   6
ATOM      6  C   UNL     1     -25.691  14.250 -26.808  1.00  0.00    +0.045 A 
ATOM      7  C   UNL     1     -22.805  13.224 -29.741  1.00  0.00    +0.043 A 
ATOM      8  C   UNL     1     -22.936  14.530 -29.279  1.00  0.00    +0.049 A 
ATOM      9  C   UNL     1     -23.640  12.226 -29.263  1.00  0.00    +0.021 A 
ATOM     10  C   UNL     1     -23.892  14.867 -28.332  1.00  0.00    +0.074 A 
ATOM     11  C   UNL     1     -24.603  12.545 -28.306  1.00  0.00    +0.014 A 
ATOM     12  N   UNL     1     -23.959  16.152 -27.965  1.00  0.00    -0.256 NA
ATOM     13  C   UNL     1     -24.745  13.865 -27.807  1.00  0.00    +0.023 A 
ATOM     14  C   UNL     1     -24.906  16.500 -27.075  1.00  0.00    +0.114 A 
ATOM     15  C   UNL     1     -25.786  15.607 -26.495  1.00  0.00    +0.046 A 
ATOM     16 Cl   UNL     1     -21.608  12.846 -30.918  1.00  0.00    -0.084 Cl
ENDBRANCH   4   6
ENDBRANCH   2   4
ENDBRANCH   1   2
BRANCH   1  17
ATOM     17  C   UNL     1     -24.997  13.787 -23.067  1.00  0.00    +0.018 C 
BRANCH  17  18
ATOM     18  C   UNL     1     -26.442  14.084 -22.625  1.00  0.00    +0.084 C 
BRANCH  18  19
ATOM     19  N   UNL     1     -26.857  13.399 -21.385  1.00  0.00    -0.304 NA
BRANCH  19  20
ATOM     20  C   UNL     1     -27.994  12.489 -21.626  1.00  0.00    +0.081 C 
ATOM     21  C   UNL     1     -27.603  11.022 -21.475  1.00  0.00    +0.021 C 
ENDBRANCH  19  20
BRANCH  19  22
ATOM     22  C   UNL     1     -27.183  14.377 -20.328  1.00  0.00    +0.081 C 
ATOM     23  C   UNL     1     -28.666  14.739 -20.306  1.00  0.00    +0.021 C 
ENDBRANCH  19  22
ENDBRANCH  18  19
ENDBRANCH  17  18
ENDBRANCH   1  17
TORSDOF 8
ENDMDL
MODEL 5
REMARK VINA RESULT:    -6.864      4.415      8.286
REMARK INTER + INTRA:         -10.930
REMARK INTER:                  -9.087
REMARK INTRA:                  -1.844
REMARK UNBOUND:                -0.856
REMARK SMILES CCN(CC)CCC[C@H](C)Nc1ccnc2cc(Cl)ccc12
REMARK SMILES IDX 8 1 9 2 10 3 11 4 12 6 18 7 17 8 20 9 16 10 21 11 15 12
REMARK SMILES IDX 22 13 14 14 13 15 19 16 7 17 6 18 3 19 2 20 1 21 4 22 5 23
REMARK H PARENT 11 5
ROOT
ATOM      1  C   UNL     1     -26.794  15.817 -24.408  1.00  0.00    +0.026 C 
ENDROOT
BRANCH   1   2
ATOM      2  C   UNL     1     -26.743  14.435 -23.726  1.00  0.00    +0.076 C 
ATOM      3  C   UNL     1     -26.735  14.553 -22.200  1.00  0.00    +0.031 C 
BRANCH   2   4
ATOM      4  N   UNL     1     -25.558  13.662 -24.129  1.00  0.00    -0.382 N 
ATOM      5  H   UNL     1     -24.715  14.224 -24.067  1.00  0.00    +0.160 HD
BRANCH   4   6
ATOM      6  C   UNL     1     -25.549  12.840 -25.273  1.00  0.00    +0.045 A 
ATOM      7  C   UNL     1     -23.355  13.837 -28.763  1.00  0.00    +0.043 A 
ATOM      8  C   UNL     1     -24.101  12.665 -28.686  1.00  0.00    +0.049 A 
ATOM      9  C   UNL     1     -23.296  14.699 -27.680  1.00  0.00    +0.021 A 
ATOM     10  C   UNL     1     -24.804  12.332 -27.538  1.00  0.00    +0.074 A 
ATOM     11  C   UNL     1     -24.001  14.385 -26.518  1.00  0.00    +0.014 A 
ATOM     12  N   UNL     1     -25.475  11.174 -27.548  1.00  0.00    -0.256 NA
ATOM     13  C   UNL     1     -24.782  13.205 -26.422  1.00  0.00    +0.023 A 
ATOM     14  C   UNL     1     -26.131  10.820 -26.428  1.00  0.00    +0.114 A 
ATOM     15  C   UNL     1     -26.181  11.596 -25.285  1.00  0.00    +0.046 A 
ATOM     16 Cl   UNL     1     -22.495  14.213 -30.205  1.00  0.00    -0.084 Cl
ENDBRANCH   4   6
ENDBRANCH   2   4
ENDBRANCH   1   2
BRANCH   1  17
ATOM     17  C   UNL     1     -27.985  16.033 -25.355  1.00  0.00    +0.018 C 
BRANCH  17  18
ATOM     18  C   UNL     1     -27.763  15.409 -26.746  1.00  0.00    +0.084 C 
BRANCH  18  19
ATOM     19  N   UNL     1     -28.412  14.098 -26.940  1.00  0.00    -0.304 NA
BRANCH  19  20
ATOM     20  C   UNL     1     -28.238  13.610 -28.323  1.00  0.00    +0.081 C 
ATOM     21  C   UNL     1     -27.322  14.512 -29.144  1.00  0.00    +0.021 C 
ENDBRANCH  19  20
BRANCH  19  22
ATOM     22  C   UNL     1     -29.843  14.161 -26.583  1.00  0.00    +0.081 C 
ATOM     23  C   UNL     1     -30.747  14.256 -27.809  1.00  0.00    +0.021 C 
ENDBRANCH  19  22
ENDBRANCH  18  19
ENDBRANCH  17  18
ENDBRANCH   1  17
TORSDOF 8
ENDMDL
MODEL 6
REMARK VINA RESULT:    -6.835      6.085      8.393
REMARK INTER + INTRA:         -10.888
REMARK INTER:                  -9.867
REMARK INTRA:                  -1.020
REMARK UNBOUND:                -0.856
REMARK SMILES CCN(CC)CCC[C@H](C)Nc1ccnc2cc(Cl)ccc12
REMARK SMILES IDX 8 1 9 2 10 3 11 4 12 6 18 7 17 8 20 9 16 10 21 11 15 12
REMARK SMILES IDX 22 13 14 14 13 15 19 16 7 17 6 18 3 19 2 20 1 21 4 22 5 23
REMARK H PARENT 11 5
ROOT
ATOM      1  C   UNL     1     -27.097  14.279 -24.535  1.00  0.00    +0.026 C 
ENDROOT
BRANCH   1   2
ATOM      2  C   UNL     1     -26.023  14.489 -23.449  1.00  0.00    +0.076 C 
ATOM      3  C   UNL     1     -24.624  14.632 -24.054  1.00  0.00    +0.031 C 
BRANCH   2   4
ATOM      4  N   UNL     1     -25.990  13.382 -22.481  1.00  0.00    -0.382 N 
ATOM      5  H   UNL     1     -25.682  12.520 -22.920  1.00  0.00    +0.160 HD
BRANCH   4   6
ATOM      6  C   UNL     1     -27.034  13.151 -21.565  1.00  0.00    +0.045 A 
ATOM      7  C   UNL     1     -29.026   9.418 -21.289  1.00  0.00    +0.043 A 
ATOM      8  C   UNL     1     -29.368  10.484 -20.464  1.00  0.00    +0.049 A 
ATOM      9  C   UNL     1     -28.000   9.550 -22.212  1.00  0.00    +0.021 A 
ATOM     10  C   UNL     1     -28.705  11.699 -20.544  1.00  0.00    +0.074 A 
ATOM     11  C   UNL     1     -27.324  10.766 -22.311  1.00  0.00    +0.014 A 
ATOM     12  N   UNL     1     -29.087  12.660 -19.694  1.00  0.00    -0.256 NA
ATOM     13  C   UNL     1     -27.667  11.873 -21.493  1.00  0.00    +0.023 A 
ATOM     14  C   UNL     1     -28.427  13.831 -19.735  1.00  0.00    +0.114 A 
ATOM     15  C   UNL     1     -27.405  14.111 -20.622  1.00  0.00    +0.046 A 
ATOM     16 Cl   UNL     1     -29.871   7.925 -21.158  1.00  0.00    -0.084 Cl
ENDBRANCH   4   6
ENDBRANCH   2   4
ENDBRANCH   1   2
BRANCH   1  17
ATOM     17  C   UNL     1     -27.694  15.568 -25.120  1.00  0.00    +0.018 C 
BRANCH  17  18
ATOM     18  C   UNL     1     -27.838  15.518 -26.653  1.00  0.00    +0.084 C 
BRANCH  18  19
ATOM     19  N   UNL     1     -27.086  16.562 -27.374  1.00  0.00    -0.304 NA
BRANCH  19  20
ATOM     20  C   UNL     1     -26.667  16.098 -28.713  1.00  0.00    +0.081 C 
ATOM     21  C   UNL     1     -27.343  14.789 -29.108  1.00  0.00    +0.021 C 
ENDBRANCH  19  20
BRANCH  19  22
ATOM     22  C   UNL     1     -25.920  17.010 -26.588  1.00  0.00    +0.081 C 
ATOM     23  C   UNL     1     -24.595  16.579 -27.210  1.00  0.00    +0.021 C 
ENDBRANCH  19  22
ENDBRANCH  18  19
ENDBRANCH  17  18
ENDBRANCH   1  17
TORSDOF 8
ENDMDL
MODEL 7
REMARK VINA RESULT:    -6.814      5.374      8.565
REMARK INTER + INTRA:         -10.856
REMARK INTER:                  -9.850
REMARK INTRA:                  -1.005
REMARK UNBOUND:                -0.856
REMARK SMILES CCN(CC)CCC[C@H](C)Nc1ccnc2cc(Cl)ccc12
REMARK SMILES IDX 8 1 9 2 10 3 11 4 12 6 18 7 17 8 20 9 16 10 21 11 15 12
REMARK SMILES IDX 22 13 14 14 13 15 19 16 7 17 6 18 3 19 2 20 1 21 4 22 5 23
REMARK H PARENT 11 5
ROOT
ATOM      1  C   UNL     1     -26.882  14.732 -25.076  1.00  0.00    +0.026 C 
ENDROOT
BRANCH   1   2
ATOM      2  C   UNL     1     -26.453  14.453 -23.622  1.00  0.00    +0.076 C 
ATOM      3  C   UNL     1     -25.032  13.889 -23.547  1.00  0.00    +0.031 C 
BRANCH   2   4
ATOM      4  N   UNL     1     -27.356  13.506 -22.949  1.00  0.00    -0.382 N 
ATOM      5  H   UNL     1     -27.955  13.033 -23.618  1.00  0.00    +0.160 HD
BRANCH   4   6
ATOM      6  C   UNL     1     -28.054  13.838 -21.772  1.00  0.00    +0.045 A 
ATOM      7  C   UNL     1     -32.202  13.089 -21.310  1.00  0.00    +0.043 A 
ATOM      8  C   UNL     1     -31.453  13.672 -20.293  1.00  0.00    +0.049 A 
ATOM      9  C   UNL     1     -31.595  12.716 -22.499  1.00  0.00    +0.021 A 
ATOM     10  C   UNL     1     -30.094  13.902 -20.439  1.00  0.00    +0.074 A 
ATOM     11  C   UNL     1     -30.229  12.944 -22.667  1.00  0.00    +0.014 A 
ATOM     12  N   UNL     1     -29.451  14.447 -19.399  1.00  0.00    -0.256 NA
ATOM     13  C   UNL     1     -29.448  13.553 -21.652  1.00  0.00    +0.023 A 
ATOM     14  C   UNL     1     -28.125  14.640 -19.513  1.00  0.00    +0.114 A 
ATOM     15  C   UNL     1     -27.397  14.342 -20.649  1.00  0.00    +0.046 A 
ATOM     16 Cl   UNL     1     -33.887  12.819 -21.089  1.00  0.00    -0.084 Cl
ENDBRANCH   4   6
ENDBRANCH   2   4
ENDBRANCH   1   2
BRANCH   1  17
ATOM     17  C   UNL     1     -27.301  16.182 -25.366  1.00  0.00    +0.018 C 
BRANCH  17  18
ATOM     18  C   UNL     1     -26.331  16.904 -26.319  1.00  0.00    +0.084 C 
BRANCH  18  19
ATOM     19  N   UNL     1     -25.695  16.031 -27.325  1.00  0.00    -0.304 NA
BRANCH  19  20
ATOM     20  C   UNL     1     -24.224  16.160 -27.299  1.00  0.00    +0.081 C 
ATOM     21  C   UNL     1     -23.538  14.868 -26.865  1.00  0.00    +0.021 C 
ENDBRANCH  19  20
BRANCH  19  22
ATOM     22  C   UNL     1     -26.222  16.312 -28.675  1.00  0.00    +0.081 C 
ATOM     23  C   UNL     1     -27.204  15.246 -29.152  1.00  0.00    +0.021 C 
ENDBRANCH  19  22
ENDBRANCH  18  19
ENDBRANCH  17  18
ENDBRANCH   1  17
TORSDOF 8
ENDMDL
MODEL 8
REMARK VINA RESULT:    -6.753      6.657      9.430
REMARK INTER + INTRA:         -10.767
REMARK INTER:                  -9.112
REMARK INTRA:                  -1.655
REMARK UNBOUND:                -0.856
REMARK SMILES CCN(CC)CCC[C@H](C)Nc1ccnc2cc(Cl)ccc12
REMARK SMILES IDX 8 1 9 2 10 3 11 4 12 6 18 7 17 8 20 9 16 10 21 11 15 12
REMARK SMILES IDX 22 13 14 14 13 15 19 16 7 17 6 18 3 19 2 20 1 21 4 22 5 23
REMARK H PARENT 11 5
ROOT
ATOM      1  C   UNL     1     -25.379  13.559 -24.133  1.00  0.00    +0.026 C 
ENDROOT
BRANCH   1   2
ATOM      2  C   UNL     1     -26.283  12.788 -23.151  1.00  0.00    +0.076 C 
ATOM      3  C   UNL     1     -26.428  11.316 -23.548  1.00  0.00    +0.031 C 
BRANCH   2   4
ATOM      4  N   UNL     1     -27.630  13.371 -23.062  1.00  0.00    -0.382 N 
ATOM      5  H   UNL     1     -27.770  14.080 -23.774  1.00  0.00    +0.160 HD
BRANCH   4   6
ATOM      6  C   UNL     1     -28.207  13.749 -21.835  1.00  0.00    +0.045 A 
ATOM      7  C   UNL     1     -32.299  13.073 -20.949  1.00  0.00    +0.043 A 
ATOM      8  C   UNL     1     -31.448  13.677 -20.028  1.00  0.00    +0.049 A 
ATOM      9  C   UNL     1     -31.814  12.656 -22.179  1.00  0.00    +0.021 A 
ATOM     10  C   UNL     1     -30.107  13.882 -20.313  1.00  0.00    +0.074 A 
ATOM     11  C   UNL     1     -30.469  12.859 -22.486  1.00  0.00    +0.014 A 
ATOM     12  N   UNL     1     -29.360  14.449 -19.357  1.00  0.00    -0.256 NA
ATOM     13  C   UNL     1     -29.586  13.487 -21.571  1.00  0.00    +0.023 A 
ATOM     14  C   UNL     1     -28.049  14.619 -19.606  1.00  0.00    +0.114 A 
ATOM     15  C   UNL     1     -27.438  14.277 -20.797  1.00  0.00    +0.046 A 
ATOM     16 Cl   UNL     1     -33.957  12.834 -20.557  1.00  0.00    -0.084 Cl
ENDBRANCH   4   6
ENDBRANCH   2   4
ENDBRANCH   1   2
BRANCH   1  17
ATOM     17  C   UNL     1     -25.754  13.414 -25.617  1.00  0.00    +0.018 C 
BRANCH  17  18
ATOM     18  C   UNL     1     -26.361  14.699 -26.208  1.00  0.00    +0.084 C 
BRANCH  18  19
ATOM     19  N   UNL     1     -27.623  15.129 -25.574  1.00  0.00    -0.304 NA
BRANCH  19  20
ATOM     20  C   UNL     1     -28.766  14.991 -26.499  1.00  0.00    +0.081 C 
ATOM     21  C   UNL     1     -29.799  13.987 -25.995  1.00  0.00    +0.021 C 
ENDBRANCH  19  20
BRANCH  19  22
ATOM     22  C   UNL     1     -27.517  16.515 -25.077  1.00  0.00    +0.081 C 
ATOM     23  C   UNL     1     -28.511  16.811 -23.958  1.00  0.00    +0.021 C 
ENDBRANCH  19  22
ENDBRANCH  18  19
ENDBRANCH  17  18
ENDBRANCH   1  17
TORSDOF 8
ENDMDL
MODEL 9
REMARK VINA RESULT:    -6.748      4.182      7.156
REMARK INTER + INTRA:         -10.759
REMARK INTER:                  -9.941
REMARK INTRA:                  -0.818
REMARK UNBOUND:                -0.856
REMARK SMILES CCN(CC)CCC[C@H](C)Nc1ccnc2cc(Cl)ccc12
REMARK SMILES IDX 8 1 9 2 10 3 11 4 12 6 18 7 17 8 20 9 16 10 21 11 15 12
REMARK SMILES IDX 22 13 14 14 13 15 19 16 7 17 6 18 3 19 2 20 1 21 4 22 5 23
REMARK H PARENT 11 5
ROOT
ATOM      1  C   UNL     1     -24.788  14.614 -24.746  1.00  0.00    +0.026 C 
ENDROOT
BRANCH   1   2
ATOM      2  C   UNL     1     -25.465  13.344 -24.193  1.00  0.00    +0.076 C 
ATOM      3  C   UNL     1     -25.511  12.224 -25.235  1.00  0.00    +0.031 C 
BRANCH   2   4
ATOM      4  N   UNL     1     -26.840  13.602 -23.739  1.00  0.00    -0.382 N 
ATOM      5  H   UNL     1     -27.205  14.459 -24.144  1.00  0.00    +0.160 HD
BRANCH   4   6
ATOM      6  C   UNL     1     -27.228  13.460 -22.393  1.00  0.00    +0.045 A 
ATOM      7  C   UNL     1     -28.975   9.896 -20.901  1.00  0.00    +0.043 A 
ATOM      8  C   UNL     1     -28.745  10.991 -20.074  1.00  0.00    +0.049 A 
ATOM      9  C   UNL     1     -28.613   9.942 -22.238  1.00  0.00    +0.021 A 
ATOM     10  C   UNL     1     -28.158  12.150 -20.560  1.00  0.00    +0.074 A 
ATOM     11  C   UNL     1     -28.027  11.100 -22.746  1.00  0.00    +0.014 A 
ATOM     12  N   UNL     1     -27.954  13.144 -19.686  1.00  0.00    -0.256 NA
ATOM     13  C   UNL     1     -27.797  12.236 -21.928  1.00  0.00    +0.023 A 
ATOM     14  C   UNL     1     -27.351  14.259 -20.135  1.00  0.00    +0.114 A 
ATOM     15  C   UNL     1     -26.964  14.452 -21.447  1.00  0.00    +0.046 A 
ATOM     16 Cl   UNL     1     -29.704   8.476 -20.259  1.00  0.00    -0.084 Cl
ENDBRANCH   4   6
ENDBRANCH   2   4
ENDBRANCH   1   2
BRANCH   1  17
ATOM     17  C   UNL     1     -24.081  14.439 -26.100  1.00  0.00    +0.018 C 
BRANCH  17  18
ATOM     18  C   UNL     1     -24.003  15.749 -26.906  1.00  0.00    +0.084 C 
BRANCH  18  19
ATOM     19  N   UNL     1     -24.115  15.576 -28.368  1.00  0.00    -0.304 NA
BRANCH  19  20
ATOM     20  C   UNL     1     -25.497  15.239 -28.767  1.00  0.00    +0.081 C 
ATOM     21  C   UNL     1     -26.413  16.460 -28.764  1.00  0.00    +0.021 C 
ENDBRANCH  19  20
BRANCH  19  22
ATOM     22  C   UNL     1     -23.167  14.553 -28.851  1.00  0.00    +0.081 C 
ATOM     23  C   UNL     1     -23.843  13.493 -29.716  1.00  0.00    +0.021 C 
ENDBRANCH  19  22
ENDBRANCH  18  19
ENDBRANCH  17  18
ENDBRANCH   1  17
TORSDOF 8
ENDMDL
