MODEL 1
REMARK VINA RESULT:    -4.543      0.000      0.000
REMARK INTER + INTRA:          -6.949
REMARK INTER:                  -6.403
REMARK INTRA:                  -0.547
REMARK UNBOUND:                -0.547
REMARK SMILES CCN(CC)C(=S)SSC(=S)N(CC)CC
REMARK SMILES IDX 8 1 9 2 10 3 11 4 12 5 13 6 14 7 15 8 16 9 6 10 7 11 3 12
REMARK SMILES IDX 2 13 1 14 4 15 5 16
REMARK H PARENT
ROOT
ATOM      1  S   UNL     1      13.052  71.228  15.950  1.00  0.00    -0.020 SA
ENDROOT
BRANCH   1   2
ATOM      2  S   UNL     1      13.937  69.473  16.594  1.00  0.00    -0.020 SA
BRANCH   2   3
ATOM      3  C   UNL     1      15.657  69.907  16.588  1.00  0.00    +0.147 C 
ATOM      4  S   UNL     1      16.230  70.848  17.867  1.00  0.00    -0.052 S 
ATOM      5  N   UNL     1      16.431  69.467  15.493  1.00  0.00    -0.357 N 
BRANCH   5   6
ATOM      6  C   UNL     1      17.870  69.774  15.389  1.00  0.00    +0.114 C 
ATOM      7  C   UNL     1      18.720  68.744  16.120  1.00  0.00    +0.027 C 
ENDBRANCH   5   6
BRANCH   5   8
ATOM      8  C   UNL     1      15.882  68.739  14.333  1.00  0.00    +0.114 C 
ATOM      9  C   UNL     1      16.715  68.961  13.080  1.00  0.00    +0.027 C 
ENDBRANCH   5   8
ENDBRANCH   2   3
ENDBRANCH   1   2
BRANCH   1  10
ATOM     10  C   UNL     1      11.376  70.725  15.637  1.00  0.00    +0.147 C 
ATOM     11  S   UNL     1      10.220  70.996  16.841  1.00  0.00    -0.052 S 
ATOM     12  N   UNL     1      11.107  70.186  14.360  1.00  0.00    -0.357 N 
BRANCH  12  13
ATOM     13  C   UNL     1       9.749  69.767  13.968  1.00  0.00    +0.114 C 
ATOM     14  C   UNL     1       9.079  70.781  13.053  1.00  0.00    +0.027 C 
ENDBRANCH  12  13
BRANCH  12  15
ATOM     15  C   UNL     1      12.128  69.995  13.314  1.00  0.00    +0.114 C 
ATOM     16  C   UNL     1      12.466  68.526  13.115  1.00  0.00    +0.027 C 
ENDBRANCH  12  15
ENDBRANCH   1  10
TORSDOF 7
ENDMDL
MODEL 2
REMARK VINA RESULT:    -4.516      1.772      2.562
REMARK INTER + INTRA:          -6.911
REMARK INTER:                  -6.342
REMARK INTRA:                  -0.568
REMARK UNBOUND:                -0.547
REMARK SMILES CCN(CC)C(=S)SSC(=S)N(CC)CC
REMARK SMILES IDX 8 1 9 2 10 3 11 4 12 5 13 6 14 7 15 8 16 9 6 10 7 11 3 12
REMARK SMILES IDX 2 13 1 14 4 15 5 16
REMARK H PARENT
ROOT
ATOM      1  S   UNL     1      13.903  68.872  16.421  1.00  0.00    -0.020 SA
ENDROOT
BRANCH   1   2
ATOM      2  S   UNL     1      15.231  70.432  16.133  1.00  0.00    -0.020 SA
BRANCH   2   3
ATOM      3  C   UNL     1      16.694  69.575  15.610  1.00  0.00    +0.147 C 
ATOM      4  S   UNL     1      16.688  68.886  14.070  1.00  0.00    -0.052 S 
ATOM      5  N   UNL     1      17.760  69.494  16.532  1.00  0.00    -0.357 N 
BRANCH   5   6
ATOM      6  C   UNL     1      19.020  68.803  16.200  1.00  0.00    +0.114 C 
ATOM      7  C   UNL     1      19.425  67.818  17.288  1.00  0.00    +0.027 C 
ENDBRANCH   5   6
BRANCH   5   8
ATOM      8  C   UNL     1      17.698  70.011  17.913  1.00  0.00    +0.114 C 
ATOM      9  C   UNL     1      18.337  71.386  18.031  1.00  0.00    +0.027 C 
ENDBRANCH   5   8
ENDBRANCH   2   3
ENDBRANCH   1   2
BRANCH   1  10
ATOM     10  C   UNL     1      12.361  69.573  15.882  1.00  0.00    +0.147 C 
ATOM     11  S   UNL     1      11.462  70.480  16.990  1.00  0.00    -0.052 S 
ATOM     12  N   UNL     1      12.019  69.377  14.526  1.00  0.00    -0.357 N 
BRANCH  12  13
ATOM     13  C   UNL     1      10.784  69.941  13.952  1.00  0.00    +0.114 C 
ATOM     14  C   UNL     1       9.654  68.923  13.913  1.00  0.00    +0.027 C 
ENDBRANCH  12  13
BRANCH  12  15
ATOM     15  C   UNL     1      12.840  68.613  13.571  1.00  0.00    +0.114 C 
ATOM     16  C   UNL     1      13.264  69.462  12.382  1.00  0.00    +0.027 C 
ENDBRANCH  12  15
ENDBRANCH   1  10
TORSDOF 7
ENDMDL
MODEL 3
REMARK VINA RESULT:    -4.511      0.314      6.121
REMARK INTER + INTRA:          -6.904
REMARK INTER:                  -6.315
REMARK INTRA:                  -0.589
REMARK UNBOUND:                -0.547
REMARK SMILES CCN(CC)C(=S)SSC(=S)N(CC)CC
REMARK SMILES IDX 8 1 9 2 10 3 11 4 12 5 13 6 14 7 15 8 16 9 6 10 7 11 3 12
REMARK SMILES IDX 2 13 1 14 4 15 5 16
REMARK H PARENT
ROOT
ATOM      1  S   UNL     1      14.195  69.562  16.715  1.00  0.00    -0.020 SA
ENDROOT
BRANCH   1   2
ATOM      2  S   UNL     1      13.275  71.277  16.015  1.00  0.00    -0.020 SA
BRANCH   2   3
ATOM      3  C   UNL     1      11.651  70.683  15.615  1.00  0.00    +0.147 C 
ATOM      4  S   UNL     1      10.493  70.687  16.843  1.00  0.00    -0.052 S 
ATOM      5  N   UNL     1      11.441  70.211  14.301  1.00  0.00    -0.357 N 
BRANCH   5   6
ATOM      6  C   UNL     1      10.131  69.695  13.864  1.00  0.00    +0.114 C 
ATOM      7  C   UNL     1       9.293  70.777  13.197  1.00  0.00    +0.027 C 
ENDBRANCH   5   6
BRANCH   5   8
ATOM      8  C   UNL     1      12.501  70.117  13.279  1.00  0.00    +0.114 C 
ATOM      9  C   UNL     1      12.771  68.674  12.876  1.00  0.00    +0.027 C 
ENDBRANCH   5   8
ENDBRANCH   2   3
ENDBRANCH   1   2
BRANCH   1  10
ATOM     10  C   UNL     1      15.916  70.008  16.690  1.00  0.00    +0.147 C 
ATOM     11  S   UNL     1      16.537  70.879  17.999  1.00  0.00    -0.052 S 
ATOM     12  N   UNL     1      16.673  69.540  15.593  1.00  0.00    -0.357 N 
BRANCH  12  13
ATOM     13  C   UNL     1      18.117  69.813  15.479  1.00  0.00    +0.114 C 
ATOM     14  C   UNL     1      18.956  68.772  16.206  1.00  0.00    +0.027 C 
ENDBRANCH  12  13
BRANCH  12  15
ATOM     15  C   UNL     1      16.114  68.750  14.483  1.00  0.00    +0.114 C 
ATOM     16  C   UNL     1      16.828  69.033  13.170  1.00  0.00    +0.027 C 
ENDBRANCH  12  15
ENDBRANCH   1  10
TORSDOF 7
ENDMDL
MODEL 4
REMARK VINA RESULT:    -4.490      1.837      6.392
REMARK INTER + INTRA:          -6.875
REMARK INTER:                  -6.328
REMARK INTRA:                  -0.547
REMARK UNBOUND:                -0.547
REMARK SMILES CCN(CC)C(=S)SSC(=S)N(CC)CC
REMARK SMILES IDX 8 1 9 2 10 3 11 4 12 5 13 6 14 7 15 8 16 9 6 10 7 11 3 12
REMARK SMILES IDX 2 13 1 14 4 15 5 16
REMARK H PARENT
ROOT
ATOM      1  S   UNL     1      14.863  69.104  17.571  1.00  0.00    -0.020 SA
ENDROOT
BRANCH   1   2
ATOM      2  S   UNL     1      14.426  69.230  15.553  1.00  0.00    -0.020 SA
BRANCH   2   3
ATOM      3  C   UNL     1      12.678  69.537  15.576  1.00  0.00    +0.147 C 
ATOM      4  S   UNL     1      12.005  70.113  17.013  1.00  0.00    -0.052 S 
ATOM      5  N   UNL     1      11.955  69.245  14.400  1.00  0.00    -0.357 N 
BRANCH   5   6
ATOM      6  C   UNL     1      10.499  69.462  14.312  1.00  0.00    +0.114 C 
ATOM      7  C   UNL     1       9.783  68.246  13.741  1.00  0.00    +0.027 C 
ENDBRANCH   5   6
BRANCH   5   8
ATOM      8  C   UNL     1      12.551  68.638  13.194  1.00  0.00    +0.114 C 
ATOM      9  C   UNL     1      12.967  69.691  12.177  1.00  0.00    +0.027 C 
ENDBRANCH   5   8
ENDBRANCH   2   3
ENDBRANCH   1   2
BRANCH   1  10
ATOM     10  C   UNL     1      15.930  70.504  17.824  1.00  0.00    +0.147 C 
ATOM     11  S   UNL     1      15.235  71.962  18.323  1.00  0.00    -0.052 S 
ATOM     12  N   UNL     1      17.314  70.280  17.653  1.00  0.00    -0.357 N 
BRANCH  12  13
ATOM     13  C   UNL     1      18.302  71.352  17.870  1.00  0.00    +0.114 C 
ATOM     14  C   UNL     1      19.042  71.189  19.190  1.00  0.00    +0.027 C 
ENDBRANCH  12  13
BRANCH  12  15
ATOM     15  C   UNL     1      17.897  68.987  17.253  1.00  0.00    +0.114 C 
ATOM     16  C   UNL     1      18.295  68.975  15.785  1.00  0.00    +0.027 C 
ENDBRANCH  12  15
ENDBRANCH   1  10
TORSDOF 7
ENDMDL
MODEL 5
REMARK VINA RESULT:    -4.479      1.955      6.700
REMARK INTER + INTRA:          -6.859
REMARK INTER:                  -6.291
REMARK INTRA:                  -0.568
REMARK UNBOUND:                -0.547
REMARK SMILES CCN(CC)C(=S)SSC(=S)N(CC)CC
REMARK SMILES IDX 8 1 9 2 10 3 11 4 12 5 13 6 14 7 15 8 16 9 6 10 7 11 3 12
REMARK SMILES IDX 2 13 1 14 4 15 5 16
REMARK H PARENT
ROOT
ATOM      1  S   UNL     1      15.546  70.376  16.422  1.00  0.00    -0.020 SA
ENDROOT
BRANCH   1   2
ATOM      2  S   UNL     1      14.227  68.791  16.582  1.00  0.00    -0.020 SA
BRANCH   2   3
ATOM      3  C   UNL     1      12.705  69.526  16.042  1.00  0.00    +0.147 C 
ATOM      4  S   UNL     1      11.722  70.239  17.213  1.00  0.00    -0.052 S 
ATOM      5  N   UNL     1      12.397  69.437  14.667  1.00  0.00    -0.357 N 
BRANCH   5   6
ATOM      6  C   UNL     1      11.157  70.012  14.112  1.00  0.00    +0.114 C 
ATOM      7  C   UNL     1      10.060  68.966  13.983  1.00  0.00    +0.027 C 
ENDBRANCH   5   6
BRANCH   5   8
ATOM      8  C   UNL     1      13.221  68.711  13.682  1.00  0.00    +0.114 C 
ATOM      9  C   UNL     1      13.559  69.579  12.479  1.00  0.00    +0.027 C 
ENDBRANCH   5   8
ENDBRANCH   2   3
ENDBRANCH   1   2
BRANCH   1  10
ATOM     10  C   UNL     1      17.037  69.584  15.863  1.00  0.00    +0.147 C 
ATOM     11  S   UNL     1      17.133  69.108  14.244  1.00  0.00    -0.052 S 
ATOM     12  N   UNL     1      18.079  69.464  16.808  1.00  0.00    -0.357 N 
BRANCH  12  13
ATOM     13  C   UNL     1      19.376  68.860  16.455  1.00  0.00    +0.114 C 
ATOM     14  C   UNL     1      19.669  67.613  17.277  1.00  0.00    +0.027 C 
ENDBRANCH  12  13
BRANCH  12  15
ATOM     15  C   UNL     1      17.981  69.922  18.205  1.00  0.00    +0.114 C 
ATOM     16  C   UNL     1      18.673  71.261  18.413  1.00  0.00    +0.027 C 
ENDBRANCH  12  15
ENDBRANCH   1  10
TORSDOF 7
ENDMDL
MODEL 6
REMARK VINA RESULT:    -4.380      1.788      3.047
REMARK INTER + INTRA:          -6.719
REMARK INTER:                  -6.152
REMARK INTRA:                  -0.567
REMARK UNBOUND:                -0.547
REMARK SMILES CCN(CC)C(=S)SSC(=S)N(CC)CC
REMARK SMILES IDX 8 1 9 2 10 3 11 4 12 5 13 6 14 7 15 8 16 9 6 10 7 11 3 12
REMARK SMILES IDX 2 13 1 14 4 15 5 16
REMARK H PARENT
ROOT
ATOM      1  S   UNL     1      13.744  70.772  15.679  1.00  0.00    -0.020 SA
ENDROOT
BRANCH   1   2
ATOM      2  S   UNL     1      14.667  68.950  16.008  1.00  0.00    -0.020 SA
BRANCH   2   3
ATOM      3  C   UNL     1      16.326  69.279  15.472  1.00  0.00    +0.147 C 
ATOM      4  S   UNL     1      16.713  68.928  13.867  1.00  0.00    -0.052 S 
ATOM      5  N   UNL     1      17.228  69.782  16.434  1.00  0.00    -0.357 N 
BRANCH   5   6
ATOM      6  C   UNL     1      18.631  70.088  16.095  1.00  0.00    +0.114 C 
ATOM      7  C   UNL     1      19.565  68.954  16.491  1.00  0.00    +0.027 C 
ENDBRANCH   5   6
BRANCH   5   8
ATOM      8  C   UNL     1      16.893  69.976  17.857  1.00  0.00    +0.114 C 
ATOM      9  C   UNL     1      16.769  71.450  18.213  1.00  0.00    +0.027 C 
ENDBRANCH   5   8
ENDBRANCH   2   3
ENDBRANCH   1   2
BRANCH   1  10
ATOM     10  C   UNL     1      12.542  70.377  14.430  1.00  0.00    +0.147 C 
ATOM     11  S   UNL     1      13.079  70.152  12.843  1.00  0.00    -0.052 S 
ATOM     12  N   UNL     1      11.210  70.210  14.867  1.00  0.00    -0.357 N 
BRANCH  12  13
ATOM     13  C   UNL     1      10.129  69.844  13.933  1.00  0.00    +0.114 C 
ATOM     14  C   UNL     1       9.897  68.341  13.887  1.00  0.00    +0.027 C 
ENDBRANCH  12  13
BRANCH  12  15
ATOM     15  C   UNL     1      10.775  70.375  16.266  1.00  0.00    +0.114 C 
ATOM     16  C   UNL     1      10.218  71.767  16.525  1.00  0.00    +0.027 C 
ENDBRANCH  12  15
ENDBRANCH   1  10
TORSDOF 7
ENDMDL
MODEL 7
REMARK VINA RESULT:    -4.331      1.834      6.570
REMARK INTER + INTRA:          -6.650
REMARK INTER:                  -6.258
REMARK INTRA:                  -0.392
REMARK UNBOUND:                -0.547
REMARK SMILES CCN(CC)C(=S)SSC(=S)N(CC)CC
REMARK SMILES IDX 8 1 9 2 10 3 11 4 12 5 13 6 14 7 15 8 16 9 6 10 7 11 3 12
REMARK SMILES IDX 2 13 1 14 4 15 5 16
REMARK H PARENT
ROOT
ATOM      1  S   UNL     1      13.733  69.101  16.160  1.00  0.00    -0.020 SA
ENDROOT
BRANCH   1   2
ATOM      2  S   UNL     1      12.696  70.521  15.069  1.00  0.00    -0.020 SA
BRANCH   2   3
ATOM      3  C   UNL     1      11.012  70.033  15.342  1.00  0.00    +0.147 C 
ATOM      4  S   UNL     1      10.216  69.235  14.086  1.00  0.00    -0.052 S 
ATOM      5  N   UNL     1      10.434  70.376  16.584  1.00  0.00    -0.357 N 
BRANCH   5   6
ATOM      6  C   UNL     1       9.041  70.020  16.913  1.00  0.00    +0.114 C 
ATOM      7  C   UNL     1       8.920  69.473  18.329  1.00  0.00    +0.027 C 
ENDBRANCH   5   6
BRANCH   5   8
ATOM      8  C   UNL     1      11.118  71.170  17.622  1.00  0.00    +0.114 C 
ATOM      9  C   UNL     1      10.797  72.652  17.502  1.00  0.00    +0.027 C 
ENDBRANCH   5   8
ENDBRANCH   2   3
ENDBRANCH   1   2
BRANCH   1  10
ATOM     10  C   UNL     1      15.370  69.792  16.236  1.00  0.00    +0.147 C 
ATOM     11  S   UNL     1      15.759  70.789  17.545  1.00  0.00    -0.052 S 
ATOM     12  N   UNL     1      16.267  69.400  15.219  1.00  0.00    -0.357 N 
BRANCH  12  13
ATOM     13  C   UNL     1      17.663  69.875  15.194  1.00  0.00    +0.114 C 
ATOM     14  C   UNL     1      18.604  68.924  15.920  1.00  0.00    +0.027 C 
ENDBRANCH  12  13
BRANCH  12  15
ATOM     15  C   UNL     1      15.912  68.498  14.109  1.00  0.00    +0.114 C 
ATOM     16  C   UNL     1      16.548  68.935  12.798  1.00  0.00    +0.027 C 
ENDBRANCH  12  15
ENDBRANCH   1  10
TORSDOF 7
ENDMDL
MODEL 8
REMARK VINA RESULT:    -4.309      2.379      3.189
REMARK INTER + INTRA:          -6.619
REMARK INTER:                  -6.135
REMARK INTRA:                  -0.484
REMARK UNBOUND:                -0.547
REMARK SMILES CCN(CC)C(=S)SSC(=S)N(CC)CC
REMARK SMILES IDX 8 1 9 2 10 3 11 4 12 5 13 6 14 7 15 8 16 9 6 10 7 11 3 12
REMARK SMILES IDX 2 13 1 14 4 15 5 16
REMARK H PARENT
ROOT
ATOM      1  S   UNL     1      14.730  68.929  15.204  1.00  0.00    -0.020 SA
ENDROOT
BRANCH   1   2
ATOM      2  S   UNL     1      15.242  68.978  17.207  1.00  0.00    -0.020 SA
BRANCH   2   3
ATOM      3  C   UNL     1      16.809  69.810  17.163  1.00  0.00    +0.147 C 
ATOM      4  S   UNL     1      17.965  69.241  16.073  1.00  0.00    -0.052 S 
ATOM      5  N   UNL     1      17.001  70.874  18.070  1.00  0.00    -0.357 N 
BRANCH   5   6
ATOM      6  C   UNL     1      18.266  71.632  18.118  1.00  0.00    +0.114 C 
ATOM      7  C   UNL     1      18.855  71.655  19.521  1.00  0.00    +0.027 C 
ENDBRANCH   5   6
BRANCH   5   8
ATOM      8  C   UNL     1      16.014  71.280  19.088  1.00  0.00    +0.114 C 
ATOM      9  C   UNL     1      15.260  72.536  18.677  1.00  0.00    +0.027 C 
ENDBRANCH   5   8
ENDBRANCH   2   3
ENDBRANCH   1   2
BRANCH   1  10
ATOM     10  C   UNL     1      13.065  69.555  15.215  1.00  0.00    +0.147 C 
ATOM     11  S   UNL     1      12.471  70.227  16.648  1.00  0.00    -0.052 S 
ATOM     12  N   UNL     1      12.367  69.510  13.989  1.00  0.00    -0.357 N 
BRANCH  12  13
ATOM     13  C   UNL     1      10.994  70.033  13.861  1.00  0.00    +0.114 C 
ATOM     14  C   UNL     1       9.949  68.936  14.000  1.00  0.00    +0.027 C 
ENDBRANCH  12  13
BRANCH  12  15
ATOM     15  C   UNL     1      12.923  68.952  12.743  1.00  0.00    +0.114 C 
ATOM     16  C   UNL     1      13.344  70.044  11.772  1.00  0.00    +0.027 C 
ENDBRANCH  12  15
ENDBRANCH   1  10
TORSDOF 7
ENDMDL
MODEL 9
REMARK VINA RESULT:    -4.227      2.871      4.278
REMARK INTER + INTRA:          -6.503
REMARK INTER:                  -5.966
REMARK INTRA:                  -0.537
REMARK UNBOUND:                -0.547
REMARK SMILES CCN(CC)C(=S)SSC(=S)N(CC)CC
REMARK SMILES IDX 8 1 9 2 10 3 11 4 12 5 13 6 14 7 15 8 16 9 6 10 7 11 3 12
REMARK SMILES IDX 2 13 1 14 4 15 5 16
REMARK H PARENT
ROOT
ATOM      1  S   UNL     1      12.480  70.363  16.663  1.00  0.00    -0.020 SA
ENDROOT
BRANCH   1   2
ATOM      2  S   UNL     1      13.400  72.215  16.599  1.00  0.00    -0.020 SA
BRANCH   2   3
ATOM      3  C   UNL     1      13.634  72.566  18.322  1.00  0.00    +0.147 C 
ATOM      4  S   UNL     1      12.405  73.402  19.123  1.00  0.00    -0.052 S 
ATOM      5  N   UNL     1      14.851  72.154  18.907  1.00  0.00    -0.357 N 
BRANCH   5   6
ATOM      6  C   UNL     1      15.148  72.398  20.331  1.00  0.00    +0.114 C 
ATOM      7  C   UNL     1      15.903  73.704  20.533  1.00  0.00    +0.027 C 
ENDBRANCH   5   6
BRANCH   5   8
ATOM      8  C   UNL     1      15.954  71.524  18.158  1.00  0.00    +0.114 C 
ATOM      9  C   UNL     1      16.587  70.381  18.938  1.00  0.00    +0.027 C 
ENDBRANCH   5   8
ENDBRANCH   2   3
ENDBRANCH   1   2
BRANCH   1  10
ATOM     10  C   UNL     1      13.182  69.534  15.255  1.00  0.00    +0.147 C 
ATOM     11  S   UNL     1      14.769  68.961  15.372  1.00  0.00    -0.052 S 
ATOM     12  N   UNL     1      12.332  69.348  14.144  1.00  0.00    -0.357 N 
BRANCH  12  13
ATOM     13  C   UNL     1      12.786  68.641  12.933  1.00  0.00    +0.114 C 
ATOM     14  C   UNL     1      13.341  69.598  11.887  1.00  0.00    +0.027 C 
ENDBRANCH  12  13
BRANCH  12  15
ATOM     15  C   UNL     1      10.939  69.825  14.084  1.00  0.00    +0.114 C 
ATOM     16  C   UNL     1       9.952  68.676  13.944  1.00  0.00    +0.027 C 
ENDBRANCH  12  15
ENDBRANCH   1  10
TORSDOF 7
ENDMDL
