MODEL 1
REMARK VINA RESULT:    -5.119      0.000      0.000
REMARK INTER + INTRA:          -7.570
REMARK INTER:                  -7.214
REMARK INTRA:                  -0.357
REMARK UNBOUND:                -0.357
REMARK SMILES CCN(CC)C(=S)SSC(=S)N(CC)CC
REMARK SMILES IDX 8 1 9 2 10 3 11 4 12 5 13 6 14 7 15 8 16 9 6 10 7 11 3 12
REMARK SMILES IDX 2 13 1 14 4 15 5 16
REMARK H PARENT
ROOT
ATOM      1  S   UNL     1     -29.851  14.069 -27.427  1.00  0.00    -0.020 SA
ENDROOT
BRANCH   1   2
ATOM      2  S   UNL     1     -28.186  14.796 -28.416  1.00  0.00    -0.020 SA
BRANCH   2   3
ATOM      3  C   UNL     1     -26.862  14.047 -27.503  1.00  0.00    +0.147 C 
ATOM      4  S   UNL     1     -26.471  12.445 -27.865  1.00  0.00    -0.052 S 
ATOM      5  N   UNL     1     -26.242  14.829 -26.505  1.00  0.00    -0.357 N 
BRANCH   5   6
ATOM      6  C   UNL     1     -25.133  14.303 -25.687  1.00  0.00    +0.114 C 
ATOM      7  C   UNL     1     -23.809  14.352 -26.436  1.00  0.00    +0.027 C 
ENDBRANCH   5   6
BRANCH   5   8
ATOM      8  C   UNL     1     -26.676  16.189 -26.133  1.00  0.00    +0.114 C 
ATOM      9  C   UNL     1     -25.806  17.257 -26.780  1.00  0.00    +0.027 C 
ENDBRANCH   5   8
ENDBRANCH   2   3
ENDBRANCH   1   2
BRANCH   1  10
ATOM     10  C   UNL     1     -30.765  13.282 -28.734  1.00  0.00    +0.147 C 
ATOM     11  S   UNL     1     -29.903  12.438 -29.918  1.00  0.00    -0.052 S 
ATOM     12  N   UNL     1     -32.172  13.361 -28.655  1.00  0.00    -0.357 N 
BRANCH  12  13
ATOM     13  C   UNL     1     -33.039  12.717 -29.658  1.00  0.00    +0.114 C 
ATOM     14  C   UNL     1     -34.158  11.910 -29.014  1.00  0.00    +0.027 C 
ENDBRANCH  12  13
BRANCH  12  15
ATOM     15  C   UNL     1     -32.899  14.072 -27.589  1.00  0.00    +0.114 C 
ATOM     16  C   UNL     1     -33.458  15.401 -28.074  1.00  0.00    +0.027 C 
ENDBRANCH  12  15
ENDBRANCH   1  10
TORSDOF 7
ENDMDL
MODEL 2
REMARK VINA RESULT:    -5.039      4.828      6.155
REMARK INTER + INTRA:          -7.458
REMARK INTER:                  -6.658
REMARK INTRA:                  -0.800
REMARK UNBOUND:                -0.357
REMARK SMILES CCN(CC)C(=S)SSC(=S)N(CC)CC
REMARK SMILES IDX 8 1 9 2 10 3 11 4 12 5 13 6 14 7 15 8 16 9 6 10 7 11 3 12
REMARK SMILES IDX 2 13 1 14 4 15 5 16
REMARK H PARENT
ROOT
ATOM      1  S   UNL     1     -26.382  12.312 -23.072  1.00  0.00    -0.020 SA
ENDROOT
BRANCH   1   2
ATOM      2  S   UNL     1     -25.327  14.088 -23.171  1.00  0.00    -0.020 SA
BRANCH   2   3
ATOM      3  C   UNL     1     -25.573  14.565 -24.862  1.00  0.00    +0.147 C 
ATOM      4  S   UNL     1     -24.694  13.739 -26.042  1.00  0.00    -0.052 S 
ATOM      5  N   UNL     1     -26.464  15.631 -25.110  1.00  0.00    -0.357 N 
BRANCH   5   6
ATOM      6  C   UNL     1     -26.740  16.107 -26.479  1.00  0.00    +0.114 C 
ATOM      7  C   UNL     1     -25.821  17.257 -26.870  1.00  0.00    +0.027 C 
ENDBRANCH   5   6
BRANCH   5   8
ATOM      8  C   UNL     1     -27.137  16.408 -24.052  1.00  0.00    +0.114 C 
ATOM      9  C   UNL     1     -28.582  16.720 -24.410  1.00  0.00    +0.027 C 
ENDBRANCH   5   8
ENDBRANCH   2   3
ENDBRANCH   1   2
BRANCH   1  10
ATOM     10  C   UNL     1     -28.071  12.866 -23.024  1.00  0.00    +0.147 C 
ATOM     11  S   UNL     1     -28.951  12.878 -24.467  1.00  0.00    -0.052 S 
ATOM     12  N   UNL     1     -28.589  13.200 -21.754  1.00  0.00    -0.357 N 
BRANCH  12  13
ATOM     13  C   UNL     1     -29.986  13.637 -21.580  1.00  0.00    +0.114 C 
ATOM     14  C   UNL     1     -30.097  15.145 -21.412  1.00  0.00    +0.027 C 
ENDBRANCH  12  13
BRANCH  12  15
ATOM     15  C   UNL     1     -27.809  13.145 -20.505  1.00  0.00    +0.114 C 
ATOM     16  C   UNL     1     -28.232  11.980 -19.623  1.00  0.00    +0.027 C 
ENDBRANCH  12  15
ENDBRANCH   1  10
TORSDOF 7
ENDMDL
MODEL 3
REMARK VINA RESULT:    -4.972      4.023      6.175
REMARK INTER + INTRA:          -7.362
REMARK INTER:                  -6.777
REMARK INTRA:                  -0.586
REMARK UNBOUND:                -0.357
REMARK SMILES CCN(CC)C(=S)SSC(=S)N(CC)CC
REMARK SMILES IDX 8 1 9 2 10 3 11 4 12 5 13 6 14 7 15 8 16 9 6 10 7 11 3 12
REMARK SMILES IDX 2 13 1 14 4 15 5 16
REMARK H PARENT
ROOT
ATOM      1  S   UNL     1     -27.032  16.277 -24.571  1.00  0.00    -0.020 SA
ENDROOT
BRANCH   1   2
ATOM      2  S   UNL     1     -27.651  15.207 -26.229  1.00  0.00    -0.020 SA
BRANCH   2   3
ATOM      3  C   UNL     1     -26.176  15.174 -27.214  1.00  0.00    +0.147 C 
ATOM      4  S   UNL     1     -24.989  16.328 -26.883  1.00  0.00    -0.052 S 
ATOM      5  N   UNL     1     -26.103  14.205 -28.238  1.00  0.00    -0.357 N 
BRANCH   5   6
ATOM      6  C   UNL     1     -24.923  14.092 -29.115  1.00  0.00    +0.114 C 
ATOM      7  C   UNL     1     -24.080  12.872 -28.770  1.00  0.00    +0.027 C 
ENDBRANCH   5   6
BRANCH   5   8
ATOM      8  C   UNL     1     -27.201  13.279 -28.577  1.00  0.00    +0.114 C 
ATOM      9  C   UNL     1     -27.908  13.688 -29.861  1.00  0.00    +0.027 C 
ENDBRANCH   5   8
ENDBRANCH   2   3
ENDBRANCH   1   2
BRANCH   1  10
ATOM     10  C   UNL     1     -26.647  14.992 -23.403  1.00  0.00    +0.147 C 
ATOM     11  S   UNL     1     -25.157  14.204 -23.541  1.00  0.00    -0.052 S 
ATOM     12  N   UNL     1     -27.597  14.760 -22.385  1.00  0.00    -0.357 N 
BRANCH  12  13
ATOM     13  C   UNL     1     -27.374  13.748 -21.337  1.00  0.00    +0.114 C 
ATOM     14  C   UNL     1     -27.459  14.343 -19.939  1.00  0.00    +0.027 C 
ENDBRANCH  12  13
BRANCH  12  15
ATOM     15  C   UNL     1     -28.872  15.489 -22.266  1.00  0.00    +0.114 C 
ATOM     16  C   UNL     1     -30.048  14.656 -22.753  1.00  0.00    +0.027 C 
ENDBRANCH  12  15
ENDBRANCH   1  10
TORSDOF 7
ENDMDL
MODEL 4
REMARK VINA RESULT:    -4.961      4.360      6.006
REMARK INTER + INTRA:          -7.348
REMARK INTER:                  -6.902
REMARK INTRA:                  -0.445
REMARK UNBOUND:                -0.357
REMARK SMILES CCN(CC)C(=S)SSC(=S)N(CC)CC
REMARK SMILES IDX 8 1 9 2 10 3 11 4 12 5 13 6 14 7 15 8 16 9 6 10 7 11 3 12
REMARK SMILES IDX 2 13 1 14 4 15 5 16
REMARK H PARENT
ROOT
ATOM      1  S   UNL     1     -26.328  15.201 -23.821  1.00  0.00    -0.020 SA
ENDROOT
BRANCH   1   2
ATOM      2  S   UNL     1     -26.331  15.922 -25.760  1.00  0.00    -0.020 SA
BRANCH   2   3
ATOM      3  C   UNL     1     -25.478  14.633 -26.630  1.00  0.00    +0.147 C 
ATOM      4  S   UNL     1     -24.461  13.626 -25.735  1.00  0.00    -0.052 S 
ATOM      5  N   UNL     1     -25.677  14.553 -28.025  1.00  0.00    -0.357 N 
BRANCH   5   6
ATOM      6  C   UNL     1     -25.015  13.521 -28.845  1.00  0.00    +0.114 C 
ATOM      7  C   UNL     1     -23.737  14.045 -29.486  1.00  0.00    +0.027 C 
ENDBRANCH   5   6
BRANCH   5   8
ATOM      8  C   UNL     1     -26.485  15.515 -28.800  1.00  0.00    +0.114 C 
ATOM      9  C   UNL     1     -27.799  14.904 -29.264  1.00  0.00    +0.027 C 
ENDBRANCH   5   8
ENDBRANCH   2   3
ENDBRANCH   1   2
BRANCH   1  10
ATOM     10  C   UNL     1     -27.941  15.663 -23.234  1.00  0.00    +0.147 C 
ATOM     11  S   UNL     1     -28.829  16.788 -24.131  1.00  0.00    -0.052 S 
ATOM     12  N   UNL     1     -28.405  15.000 -22.077  1.00  0.00    -0.357 N 
BRANCH  12  13
ATOM     13  C   UNL     1     -29.741  15.269 -21.515  1.00  0.00    +0.114 C 
ATOM     14  C   UNL     1     -30.759  14.218 -21.931  1.00  0.00    +0.027 C 
ENDBRANCH  12  13
BRANCH  12  15
ATOM     15  C   UNL     1     -27.624  13.994 -21.334  1.00  0.00    +0.114 C 
ATOM     16  C   UNL     1     -27.460  14.373 -19.870  1.00  0.00    +0.027 C 
ENDBRANCH  12  15
ENDBRANCH   1  10
TORSDOF 7
ENDMDL
MODEL 5
REMARK VINA RESULT:    -4.939      4.726      6.888
REMARK INTER + INTRA:          -7.317
REMARK INTER:                  -6.535
REMARK INTRA:                  -0.782
REMARK UNBOUND:                -0.357
REMARK SMILES CCN(CC)C(=S)SSC(=S)N(CC)CC
REMARK SMILES IDX 8 1 9 2 10 3 11 4 12 5 13 6 14 7 15 8 16 9 6 10 7 11 3 12
REMARK SMILES IDX 2 13 1 14 4 15 5 16
REMARK H PARENT
ROOT
ATOM      1  S   UNL     1     -25.580  14.011 -23.183  1.00  0.00    -0.020 SA
ENDROOT
BRANCH   1   2
ATOM      2  S   UNL     1     -26.582  12.204 -23.093  1.00  0.00    -0.020 SA
BRANCH   2   3
ATOM      3  C   UNL     1     -28.277  12.727 -23.054  1.00  0.00    +0.147 C 
ATOM      4  S   UNL     1     -29.111  12.785 -24.520  1.00  0.00    -0.052 S 
ATOM      5  N   UNL     1     -28.811  13.097 -21.801  1.00  0.00    -0.357 N 
BRANCH   5   6
ATOM      6  C   UNL     1     -30.207  13.548 -21.656  1.00  0.00    +0.114 C 
ATOM      7  C   UNL     1     -30.288  15.034 -21.333  1.00  0.00    +0.027 C 
ENDBRANCH   5   6
BRANCH   5   8
ATOM      8  C   UNL     1     -28.027  13.143 -20.551  1.00  0.00    +0.114 C 
ATOM      9  C   UNL     1     -28.395  12.004 -19.612  1.00  0.00    +0.027 C 
ENDBRANCH   5   8
ENDBRANCH   2   3
ENDBRANCH   1   2
BRANCH   1  10
ATOM     10  C   UNL     1     -25.832  14.510 -24.871  1.00  0.00    +0.147 C 
ATOM     11  S   UNL     1     -25.131  13.579 -26.095  1.00  0.00    -0.052 S 
ATOM     12  N   UNL     1     -26.669  15.628 -25.080  1.00  0.00    -0.357 N 
BRANCH  12  13
ATOM     13  C   UNL     1     -26.984  16.115 -26.435  1.00  0.00    +0.114 C 
ATOM     14  C   UNL     1     -26.037  17.219 -26.881  1.00  0.00    +0.027 C 
ENDBRANCH  12  13
BRANCH  12  15
ATOM     15  C   UNL     1     -27.299  16.400 -23.994  1.00  0.00    +0.114 C 
ATOM     16  C   UNL     1     -28.765  16.688 -24.281  1.00  0.00    +0.027 C 
ENDBRANCH  12  15
ENDBRANCH   1  10
TORSDOF 7
ENDMDL
MODEL 6
REMARK VINA RESULT:    -4.922      4.202      6.548
REMARK INTER + INTRA:          -7.293
REMARK INTER:                  -6.569
REMARK INTRA:                  -0.724
REMARK UNBOUND:                -0.357
REMARK SMILES CCN(CC)C(=S)SSC(=S)N(CC)CC
REMARK SMILES IDX 8 1 9 2 10 3 11 4 12 5 13 6 14 7 15 8 16 9 6 10 7 11 3 12
REMARK SMILES IDX 2 13 1 14 4 15 5 16
REMARK H PARENT
ROOT
ATOM      1  S   UNL     1     -29.431  13.181 -23.994  1.00  0.00    -0.020 SA
ENDROOT
BRANCH   1   2
ATOM      2  S   UNL     1     -29.803  15.011 -24.883  1.00  0.00    -0.020 SA
BRANCH   2   3
ATOM      3  C   UNL     1     -28.408  15.181 -25.967  1.00  0.00    +0.147 C 
ATOM      4  S   UNL     1     -28.564  14.590 -27.540  1.00  0.00    -0.052 S 
ATOM      5  N   UNL     1     -27.243  15.771 -25.432  1.00  0.00    -0.357 N 
BRANCH   5   6
ATOM      6  C   UNL     1     -26.027  15.958 -26.246  1.00  0.00    +0.114 C 
ATOM      7  C   UNL     1     -25.963  17.354 -26.849  1.00  0.00    +0.027 C 
ENDBRANCH   5   6
BRANCH   5   8
ATOM      8  C   UNL     1     -27.096  16.179 -24.022  1.00  0.00    +0.114 C 
ATOM      9  C   UNL     1     -26.171  15.246 -23.256  1.00  0.00    +0.027 C 
ENDBRANCH   5   8
ENDBRANCH   2   3
ENDBRANCH   1   2
BRANCH   1  10
ATOM     10  C   UNL     1     -29.380  13.594 -22.265  1.00  0.00    +0.147 C 
ATOM     11  S   UNL     1     -30.544  14.661 -21.662  1.00  0.00    -0.052 S 
ATOM     12  N   UNL     1     -28.398  12.940 -21.490  1.00  0.00    -0.357 N 
BRANCH  12  13
ATOM     13  C   UNL     1     -28.280  13.171 -20.038  1.00  0.00    +0.114 C 
ATOM     14  C   UNL     1     -27.327  14.312 -19.715  1.00  0.00    +0.027 C 
ENDBRANCH  12  13
BRANCH  12  15
ATOM     15  C   UNL     1     -27.418  11.985 -22.035  1.00  0.00    +0.114 C 
ATOM     16  C   UNL     1     -27.717  10.557 -21.604  1.00  0.00    +0.027 C 
ENDBRANCH  12  15
ENDBRANCH   1  10
TORSDOF 7
ENDMDL
MODEL 7
REMARK VINA RESULT:    -4.922      4.211      5.569
REMARK INTER + INTRA:          -7.292
REMARK INTER:                  -6.412
REMARK INTRA:                  -0.880
REMARK UNBOUND:                -0.357
REMARK SMILES CCN(CC)C(=S)SSC(=S)N(CC)CC
REMARK SMILES IDX 8 1 9 2 10 3 11 4 12 5 13 6 14 7 15 8 16 9 6 10 7 11 3 12
REMARK SMILES IDX 2 13 1 14 4 15 5 16
REMARK H PARENT
ROOT
ATOM      1  S   UNL     1     -26.787  12.514 -22.720  1.00  0.00    -0.020 SA
ENDROOT
BRANCH   1   2
ATOM      2  S   UNL     1     -25.388  13.979 -23.139  1.00  0.00    -0.020 SA
BRANCH   2   3
ATOM      3  C   UNL     1     -25.800  14.411 -24.810  1.00  0.00    +0.147 C 
ATOM      4  S   UNL     1     -25.147  13.465 -26.045  1.00  0.00    -0.052 S 
ATOM      5  N   UNL     1     -26.622  15.543 -25.000  1.00  0.00    -0.357 N 
BRANCH   5   6
ATOM      6  C   UNL     1     -27.023  15.990 -26.348  1.00  0.00    +0.114 C 
ATOM      7  C   UNL     1     -26.096  17.073 -26.880  1.00  0.00    +0.027 C 
ENDBRANCH   5   6
BRANCH   5   8
ATOM      8  C   UNL     1     -27.089  16.417 -23.908  1.00  0.00    +0.114 C 
ATOM      9  C   UNL     1     -28.539  16.837 -24.100  1.00  0.00    +0.027 C 
ENDBRANCH   5   8
ENDBRANCH   2   3
ENDBRANCH   1   2
BRANCH   1  10
ATOM     10  C   UNL     1     -28.114  13.445 -21.988  1.00  0.00    +0.147 C 
ATOM     11  S   UNL     1     -27.816  14.261 -20.538  1.00  0.00    -0.052 S 
ATOM     12  N   UNL     1     -29.324  13.494 -22.714  1.00  0.00    -0.357 N 
BRANCH  12  13
ATOM     13  C   UNL     1     -30.484  14.264 -22.230  1.00  0.00    +0.114 C 
ATOM     14  C   UNL     1     -31.541  13.369 -21.599  1.00  0.00    +0.027 C 
ENDBRANCH  12  13
BRANCH  12  15
ATOM     15  C   UNL     1     -29.545  12.803 -23.997  1.00  0.00    +0.114 C 
ATOM     16  C   UNL     1     -30.073  13.747 -25.066  1.00  0.00    +0.027 C 
ENDBRANCH  12  15
ENDBRANCH   1  10
TORSDOF 7
ENDMDL
MODEL 8
REMARK VINA RESULT:    -4.906      3.883      5.885
REMARK INTER + INTRA:          -7.271
REMARK INTER:                  -6.678
REMARK INTRA:                  -0.592
REMARK UNBOUND:                -0.357
REMARK SMILES CCN(CC)C(=S)SSC(=S)N(CC)CC
REMARK SMILES IDX 8 1 9 2 10 3 11 4 12 5 13 6 14 7 15 8 16 9 6 10 7 11 3 12
REMARK SMILES IDX 2 13 1 14 4 15 5 16
REMARK H PARENT
ROOT
ATOM      1  S   UNL     1     -28.275  15.326 -25.877  1.00  0.00    -0.020 SA
ENDROOT
BRANCH   1   2
ATOM      2  S   UNL     1     -27.649  16.420 -24.237  1.00  0.00    -0.020 SA
BRANCH   2   3
ATOM      3  C   UNL     1     -27.081  15.145 -23.142  1.00  0.00    +0.147 C 
ATOM      4  S   UNL     1     -25.554  14.488 -23.432  1.00  0.00    -0.052 S 
ATOM      5  N   UNL     1     -27.960  14.736 -22.116  1.00  0.00    -0.357 N 
BRANCH   5   6
ATOM      6  C   UNL     1     -27.589  13.683 -21.152  1.00  0.00    +0.114 C 
ATOM      7  C   UNL     1     -27.393  14.246 -19.751  1.00  0.00    +0.027 C 
ENDBRANCH   5   6
BRANCH   5   8
ATOM      8  C   UNL     1     -29.333  15.251 -21.951  1.00  0.00    +0.114 C 
ATOM      9  C   UNL     1     -30.365  14.312 -22.560  1.00  0.00    +0.027 C 
ENDBRANCH   5   8
ENDBRANCH   2   3
ENDBRANCH   1   2
BRANCH   1  10
ATOM     10  C   UNL     1     -26.957  15.586 -27.042  1.00  0.00    +0.147 C 
ATOM     11  S   UNL     1     -25.904  16.883 -26.784  1.00  0.00    -0.052 S 
ATOM     12  N   UNL     1     -26.837  14.637 -28.080  1.00  0.00    -0.357 N 
BRANCH  12  13
ATOM     13  C   UNL     1     -25.762  14.723 -29.086  1.00  0.00    +0.114 C 
ATOM     14  C   UNL     1     -24.810  13.538 -29.008  1.00  0.00    +0.027 C 
ENDBRANCH  12  13
BRANCH  12  15
ATOM     15  C   UNL     1     -27.748  13.492 -28.260  1.00  0.00    +0.114 C 
ATOM     16  C   UNL     1     -28.542  13.597 -29.553  1.00  0.00    +0.027 C 
ENDBRANCH  12  15
ENDBRANCH   1  10
TORSDOF 7
ENDMDL
MODEL 9
REMARK VINA RESULT:    -4.882      4.356      6.582
REMARK INTER + INTRA:          -7.236
REMARK INTER:                  -6.269
REMARK INTRA:                  -0.967
REMARK UNBOUND:                -0.357
REMARK SMILES CCN(CC)C(=S)SSC(=S)N(CC)CC
REMARK SMILES IDX 8 1 9 2 10 3 11 4 12 5 13 6 14 7 15 8 16 9 6 10 7 11 3 12
REMARK SMILES IDX 2 13 1 14 4 15 5 16
REMARK H PARENT
ROOT
ATOM      1  S   UNL     1     -27.553  12.416 -25.872  1.00  0.00    -0.020 SA
ENDROOT
BRANCH   1   2
ATOM      2  S   UNL     1     -29.092  12.769 -24.535  1.00  0.00    -0.020 SA
BRANCH   2   3
ATOM      3  C   UNL     1     -28.209  12.985 -23.011  1.00  0.00    +0.147 C 
ATOM      4  S   UNL     1     -27.404  11.643 -22.378  1.00  0.00    -0.052 S 
ATOM      5  N   UNL     1     -28.266  14.259 -22.406  1.00  0.00    -0.357 N 
BRANCH   5   6
ATOM      6  C   UNL     1     -27.570  14.545 -21.138  1.00  0.00    +0.114 C 
ATOM      7  C   UNL     1     -28.544  14.647 -19.972  1.00  0.00    +0.027 C 
ENDBRANCH   5   6
BRANCH   5   8
ATOM      8  C   UNL     1     -29.068  15.384 -22.924  1.00  0.00    +0.114 C 
ATOM      9  C   UNL     1     -28.194  16.459 -23.552  1.00  0.00    +0.027 C 
ENDBRANCH   5   8
ENDBRANCH   2   3
ENDBRANCH   1   2
BRANCH   1  10
ATOM     10  C   UNL     1     -27.026  14.060 -26.299  1.00  0.00    +0.147 C 
ATOM     11  S   UNL     1     -28.057  15.012 -27.242  1.00  0.00    -0.052 S 
ATOM     12  N   UNL     1     -25.795  14.487 -25.758  1.00  0.00    -0.357 N 
BRANCH  12  13
ATOM     13  C   UNL     1     -25.269  15.842 -26.009  1.00  0.00    +0.114 C 
ATOM     14  C   UNL     1     -24.037  15.821 -26.902  1.00  0.00    +0.027 C 
ENDBRANCH  12  13
BRANCH  12  15
ATOM     15  C   UNL     1     -24.932  13.648 -24.907  1.00  0.00    +0.114 C 
ATOM     16  C   UNL     1     -24.753  14.245 -23.519  1.00  0.00    +0.027 C 
ENDBRANCH  12  15
ENDBRANCH   1  10
TORSDOF 7
ENDMDL
