MODEL 1
REMARK VINA RESULT:    -3.846      0.000      0.000
REMARK INTER + INTRA:          -5.834
REMARK INTER:                  -5.420
REMARK INTRA:                  -0.414
REMARK UNBOUND:                -0.414
REMARK SMILES CCN(CC)C(=S)SSC(=S)N(CC)CC
REMARK SMILES IDX 8 1 9 2 10 3 11 4 12 5 13 6 14 7 15 8 16 9 6 10 7 11 3 12
REMARK SMILES IDX 2 13 1 14 4 15 5 16
REMARK H PARENT
ROOT
ATOM      1  S   UNL     1     -16.025  -7.122  17.905  1.00  0.00    -0.020 SA
ENDROOT
BRANCH   1   2
ATOM      2  S   UNL     1     -14.793  -6.573  16.336  1.00  0.00    -0.020 SA
BRANCH   2   3
ATOM      3  C   UNL     1     -15.239  -4.872  16.099  1.00  0.00    +0.147 C 
ATOM      4  S   UNL     1     -15.212  -3.862  17.450  1.00  0.00    -0.052 S 
ATOM      5  N   UNL     1     -15.622  -4.480  14.798  1.00  0.00    -0.357 N 
BRANCH   5   6
ATOM      6  C   UNL     1     -16.013  -3.091  14.492  1.00  0.00    +0.114 C 
ATOM      7  C   UNL     1     -14.950  -2.376  13.671  1.00  0.00    +0.027 C 
ENDBRANCH   5   6
BRANCH   5   8
ATOM      8  C   UNL     1     -15.743  -5.409  13.658  1.00  0.00    +0.114 C 
ATOM      9  C   UNL     1     -17.195  -5.635  13.264  1.00  0.00    +0.027 C 
ENDBRANCH   5   8
ENDBRANCH   2   3
ENDBRANCH   1   2
BRANCH   1  10
ATOM     10  C   UNL     1     -15.402  -8.729  18.342  1.00  0.00    +0.147 C 
ATOM     11  S   UNL     1     -14.313  -9.480  17.290  1.00  0.00    -0.052 S 
ATOM     12  N   UNL     1     -15.813  -9.246  19.590  1.00  0.00    -0.357 N 
BRANCH  12  13
ATOM     13  C   UNL     1     -15.335 -10.551  20.081  1.00  0.00    +0.114 C 
ATOM     14  C   UNL     1     -16.345 -11.662  19.830  1.00  0.00    +0.027 C 
ENDBRANCH  12  13
BRANCH  12  15
ATOM     15  C   UNL     1     -16.735  -8.552  20.507  1.00  0.00    +0.114 C 
ATOM     16  C   UNL     1     -15.993  -7.858  21.639  1.00  0.00    +0.027 C 
ENDBRANCH  12  15
ENDBRANCH   1  10
TORSDOF 7
ENDMDL
MODEL 2
REMARK VINA RESULT:    -3.820      0.214      7.463
REMARK INTER + INTRA:          -5.798
REMARK INTER:                  -5.347
REMARK INTRA:                  -0.451
REMARK UNBOUND:                -0.414
REMARK SMILES CCN(CC)C(=S)SSC(=S)N(CC)CC
REMARK SMILES IDX 8 1 9 2 10 3 11 4 12 5 13 6 14 7 15 8 16 9 6 10 7 11 3 12
REMARK SMILES IDX 2 13 1 14 4 15 5 16
REMARK H PARENT
ROOT
ATOM      1  S   UNL     1     -14.713  -6.614  16.322  1.00  0.00    -0.020 SA
ENDROOT
BRANCH   1   2
ATOM      2  S   UNL     1     -16.209  -7.344  17.550  1.00  0.00    -0.020 SA
BRANCH   2   3
ATOM      3  C   UNL     1     -15.509  -8.877  18.106  1.00  0.00    +0.147 C 
ATOM      4  S   UNL     1     -14.575  -9.753  17.007  1.00  0.00    -0.052 S 
ATOM      5  N   UNL     1     -15.809  -9.284  19.424  1.00  0.00    -0.357 N 
BRANCH   5   6
ATOM      6  C   UNL     1     -15.280 -10.541  19.985  1.00  0.00    +0.114 C 
ATOM      7  C   UNL     1     -16.316 -11.655  19.943  1.00  0.00    +0.027 C 
ENDBRANCH   5   6
BRANCH   5   8
ATOM      8  C   UNL     1     -16.718  -8.553  20.327  1.00  0.00    +0.114 C 
ATOM      9  C   UNL     1     -15.965  -7.876  21.462  1.00  0.00    +0.027 C 
ENDBRANCH   5   8
ENDBRANCH   2   3
ENDBRANCH   1   2
BRANCH   1  10
ATOM     10  C   UNL     1     -15.182  -4.912  16.111  1.00  0.00    +0.147 C 
ATOM     11  S   UNL     1     -15.001  -3.862  17.424  1.00  0.00    -0.052 S 
ATOM     12  N   UNL     1     -15.617  -4.532  14.822  1.00  0.00    -0.357 N 
BRANCH  12  13
ATOM     13  C   UNL     1     -15.996  -3.142  14.513  1.00  0.00    +0.114 C 
ATOM     14  C   UNL     1     -14.924  -2.421  13.710  1.00  0.00    +0.027 C 
ENDBRANCH  12  13
BRANCH  12  15
ATOM     15  C   UNL     1     -15.729  -5.461  13.684  1.00  0.00    +0.114 C 
ATOM     16  C   UNL     1     -17.180  -5.741  13.322  1.00  0.00    +0.027 C 
ENDBRANCH  12  15
ENDBRANCH   1  10
TORSDOF 7
ENDMDL
MODEL 3
REMARK VINA RESULT:    -3.759      7.507     10.692
REMARK INTER + INTRA:          -5.712
REMARK INTER:                  -5.258
REMARK INTRA:                  -0.454
REMARK UNBOUND:                -0.414
REMARK SMILES CCN(CC)C(=S)SSC(=S)N(CC)CC
REMARK SMILES IDX 8 1 9 2 10 3 11 4 12 5 13 6 14 7 15 8 16 9 6 10 7 11 3 12
REMARK SMILES IDX 2 13 1 14 4 15 5 16
REMARK H PARENT
ROOT
ATOM      1  S   UNL     1     -13.059 -17.300  19.167  1.00  0.00    -0.020 SA
ENDROOT
BRANCH   1   2
ATOM      2  S   UNL     1     -12.576 -15.360  18.635  1.00  0.00    -0.020 SA
BRANCH   2   3
ATOM      3  C   UNL     1     -14.169 -14.679  18.253  1.00  0.00    +0.147 C 
ATOM      4  S   UNL     1     -15.284 -15.684  17.480  1.00  0.00    -0.052 S 
ATOM      5  N   UNL     1     -14.391 -13.326  18.588  1.00  0.00    -0.357 N 
BRANCH   5   6
ATOM      6  C   UNL     1     -15.678 -12.661  18.313  1.00  0.00    +0.114 C 
ATOM      7  C   UNL     1     -16.218 -11.948  19.545  1.00  0.00    +0.027 C 
ENDBRANCH   5   6
BRANCH   5   8
ATOM      8  C   UNL     1     -13.362 -12.439  19.163  1.00  0.00    +0.114 C 
ATOM      9  C   UNL     1     -12.755 -11.521  18.112  1.00  0.00    +0.027 C 
ENDBRANCH   5   8
ENDBRANCH   2   3
ENDBRANCH   1   2
BRANCH   1  10
ATOM     10  C   UNL     1     -11.510 -17.933  19.768  1.00  0.00    +0.147 C 
ATOM     11  S   UNL     1     -11.000 -17.470  21.312  1.00  0.00    -0.052 S 
ATOM     12  N   UNL     1     -10.834 -18.847  18.930  1.00  0.00    -0.357 N 
BRANCH  12  13
ATOM     13  C   UNL     1      -9.561 -19.469  19.334  1.00  0.00    +0.114 C 
ATOM     14  C   UNL     1      -8.364 -18.815  18.658  1.00  0.00    +0.027 C 
ENDBRANCH  12  13
BRANCH  12  15
ATOM     15  C   UNL     1     -11.321 -19.263  17.603  1.00  0.00    +0.114 C 
ATOM     16  C   UNL     1     -11.610 -20.755  17.548  1.00  0.00    +0.027 C 
ENDBRANCH  12  15
ENDBRANCH   1  10
TORSDOF 7
ENDMDL
MODEL 4
REMARK VINA RESULT:    -3.752      9.539     11.848
REMARK INTER + INTRA:          -5.701
REMARK INTER:                  -5.269
REMARK INTRA:                  -0.432
REMARK UNBOUND:                -0.414
REMARK SMILES CCN(CC)C(=S)SSC(=S)N(CC)CC
REMARK SMILES IDX 8 1 9 2 10 3 11 4 12 5 13 6 14 7 15 8 16 9 6 10 7 11 3 12
REMARK SMILES IDX 2 13 1 14 4 15 5 16
REMARK H PARENT
ROOT
ATOM      1  S   UNL     1     -14.375 -11.698  28.663  1.00  0.00    -0.020 SA
ENDROOT
BRANCH   1   2
ATOM      2  S   UNL     1     -12.948 -11.696  27.165  1.00  0.00    -0.020 SA
BRANCH   2   3
ATOM      3  C   UNL     1     -12.663  -9.960  26.934  1.00  0.00    +0.147 C 
ATOM      4  S   UNL     1     -12.181  -9.062  28.279  1.00  0.00    -0.052 S 
ATOM      5  N   UNL     1     -12.891  -9.433  25.645  1.00  0.00    -0.357 N 
BRANCH   5   6
ATOM      6  C   UNL     1     -12.686  -8.004  25.345  1.00  0.00    +0.114 C 
ATOM      7  C   UNL     1     -13.777  -7.458  24.435  1.00  0.00    +0.027 C 
ENDBRANCH   5   6
BRANCH   5   8
ATOM      8  C   UNL     1     -13.418 -10.220  24.513  1.00  0.00    +0.114 C 
ATOM      9  C   UNL     1     -12.307 -10.692  23.587  1.00  0.00    +0.027 C 
ENDBRANCH   5   8
ENDBRANCH   2   3
ENDBRANCH   1   2
BRANCH   1  10
ATOM     10  C   UNL     1     -13.901 -13.101  29.647  1.00  0.00    +0.147 C 
ATOM     11  S   UNL     1     -12.979 -12.829  31.038  1.00  0.00    -0.052 S 
ATOM     12  N   UNL     1     -14.390 -14.358  29.230  1.00  0.00    -0.357 N 
BRANCH  12  13
ATOM     13  C   UNL     1     -14.097 -15.590  29.985  1.00  0.00    +0.114 C 
ATOM     14  C   UNL     1     -13.143 -16.507  29.234  1.00  0.00    +0.027 C 
ENDBRANCH  12  13
BRANCH  12  15
ATOM     15  C   UNL     1     -15.224 -14.562  28.033  1.00  0.00    +0.114 C 
ATOM     16  C   UNL     1     -16.688 -14.772  28.390  1.00  0.00    +0.027 C 
ENDBRANCH  12  15
ENDBRANCH   1  10
TORSDOF 7
ENDMDL
MODEL 5
REMARK VINA RESULT:    -3.747      2.474      3.124
REMARK INTER + INTRA:          -5.694
REMARK INTER:                  -5.263
REMARK INTRA:                  -0.431
REMARK UNBOUND:                -0.414
REMARK SMILES CCN(CC)C(=S)SSC(=S)N(CC)CC
REMARK SMILES IDX 8 1 9 2 10 3 11 4 12 5 13 6 14 7 15 8 16 9 6 10 7 11 3 12
REMARK SMILES IDX 2 13 1 14 4 15 5 16
REMARK H PARENT
ROOT
ATOM      1  S   UNL     1     -16.322  -7.463  16.572  1.00  0.00    -0.020 SA
ENDROOT
BRANCH   1   2
ATOM      2  S   UNL     1     -16.165  -8.055  14.597  1.00  0.00    -0.020 SA
BRANCH   2   3
ATOM      3  C   UNL     1     -17.016  -6.746  13.754  1.00  0.00    +0.147 C 
ATOM      4  S   UNL     1     -16.292  -5.221  13.747  1.00  0.00    -0.052 S 
ATOM      5  N   UNL     1     -18.263  -7.056  13.171  1.00  0.00    -0.357 N 
BRANCH   5   6
ATOM      6  C   UNL     1     -19.054  -6.041  12.449  1.00  0.00    +0.114 C 
ATOM      7  C   UNL     1     -18.899  -6.176  10.941  1.00  0.00    +0.027 C 
ENDBRANCH   5   6
BRANCH   5   8
ATOM      8  C   UNL     1     -18.925  -8.370  13.287  1.00  0.00    +0.114 C 
ATOM      9  C   UNL     1     -20.371  -8.237  13.740  1.00  0.00    +0.027 C 
ENDBRANCH   5   8
ENDBRANCH   2   3
ENDBRANCH   1   2
BRANCH   1  10
ATOM     10  C   UNL     1     -15.680  -8.870  17.450  1.00  0.00    +0.147 C 
ATOM     11  S   UNL     1     -14.840 -10.046  16.574  1.00  0.00    -0.052 S 
ATOM     12  N   UNL     1     -15.859  -8.874  18.851  1.00  0.00    -0.357 N 
BRANCH  12  13
ATOM     13  C   UNL     1     -15.339  -9.967  19.693  1.00  0.00    +0.114 C 
ATOM     14  C   UNL     1     -16.329 -11.116  19.815  1.00  0.00    +0.027 C 
ENDBRANCH  12  13
BRANCH  12  15
ATOM     15  C   UNL     1     -16.563  -7.815  19.595  1.00  0.00    +0.114 C 
ATOM     16  C   UNL     1     -15.708  -7.248  20.718  1.00  0.00    +0.027 C 
ENDBRANCH  12  15
ENDBRANCH   1  10
TORSDOF 7
ENDMDL
MODEL 6
REMARK VINA RESULT:    -3.733      2.486      7.340
REMARK INTER + INTRA:          -5.675
REMARK INTER:                  -5.223
REMARK INTRA:                  -0.451
REMARK UNBOUND:                -0.414
REMARK SMILES CCN(CC)C(=S)SSC(=S)N(CC)CC
REMARK SMILES IDX 8 1 9 2 10 3 11 4 12 5 13 6 14 7 15 8 16 9 6 10 7 11 3 12
REMARK SMILES IDX 2 13 1 14 4 15 5 16
REMARK H PARENT
ROOT
ATOM      1  S   UNL     1     -16.460  -8.415  15.002  1.00  0.00    -0.020 SA
ENDROOT
BRANCH   1   2
ATOM      2  S   UNL     1     -15.820  -7.618  16.800  1.00  0.00    -0.020 SA
BRANCH   2   3
ATOM      3  C   UNL     1     -15.234  -9.061  17.651  1.00  0.00    +0.147 C 
ATOM      4  S   UNL     1     -14.267 -10.140  16.786  1.00  0.00    -0.052 S 
ATOM      5  N   UNL     1     -15.646  -9.233  18.990  1.00  0.00    -0.357 N 
BRANCH   5   6
ATOM      6  C   UNL     1     -15.218 -10.398  19.788  1.00  0.00    +0.114 C 
ATOM      7  C   UNL     1     -16.309 -11.456  19.867  1.00  0.00    +0.027 C 
ENDBRANCH   5   6
BRANCH   5   8
ATOM      8  C   UNL     1     -16.581  -8.331  19.689  1.00  0.00    +0.114 C 
ATOM      9  C   UNL     1     -16.008  -7.832  21.006  1.00  0.00    +0.027 C 
ENDBRANCH   5   8
ENDBRANCH   2   3
ENDBRANCH   1   2
BRANCH   1  10
ATOM     10  C   UNL     1     -17.073  -6.984  14.142  1.00  0.00    +0.147 C 
ATOM     11  S   UNL     1     -16.109  -5.596  14.107  1.00  0.00    -0.052 S 
ATOM     12  N   UNL     1     -18.311  -7.129  13.480  1.00  0.00    -0.357 N 
BRANCH  12  13
ATOM     13  C   UNL     1     -18.905  -6.027  12.702  1.00  0.00    +0.114 C 
ATOM     14  C   UNL     1     -18.652  -6.178  11.209  1.00  0.00    +0.027 C 
ENDBRANCH  12  13
BRANCH  12  15
ATOM     15  C   UNL     1     -19.114  -8.365  13.495  1.00  0.00    +0.114 C 
ATOM     16  C   UNL     1     -20.540  -8.108  13.959  1.00  0.00    +0.027 C 
ENDBRANCH  12  15
ENDBRANCH   1  10
TORSDOF 7
ENDMDL
MODEL 7
REMARK VINA RESULT:    -3.730      1.527      2.416
REMARK INTER + INTRA:          -5.670
REMARK INTER:                  -5.224
REMARK INTRA:                  -0.447
REMARK UNBOUND:                -0.414
REMARK SMILES CCN(CC)C(=S)SSC(=S)N(CC)CC
REMARK SMILES IDX 8 1 9 2 10 3 11 4 12 5 13 6 14 7 15 8 16 9 6 10 7 11 3 12
REMARK SMILES IDX 2 13 1 14 4 15 5 16
REMARK H PARENT
ROOT
ATOM      1  S   UNL     1     -16.026  -6.985  17.022  1.00  0.00    -0.020 SA
ENDROOT
BRANCH   1   2
ATOM      2  S   UNL     1     -14.564  -5.595  17.477  1.00  0.00    -0.020 SA
BRANCH   2   3
ATOM      3  C   UNL     1     -14.236  -4.875  15.889  1.00  0.00    +0.147 C 
ATOM      4  S   UNL     1     -13.832  -5.920  14.626  1.00  0.00    -0.052 S 
ATOM      5  N   UNL     1     -14.301  -3.469  15.791  1.00  0.00    -0.357 N 
BRANCH   5   6
ATOM      6  C   UNL     1     -14.045  -2.768  14.518  1.00  0.00    +0.114 C 
ATOM      7  C   UNL     1     -15.338  -2.448  13.782  1.00  0.00    +0.027 C 
ENDBRANCH   5   6
BRANCH   5   8
ATOM      8  C   UNL     1     -14.549  -2.572  16.936  1.00  0.00    +0.114 C 
ATOM      9  C   UNL     1     -13.705  -1.308  16.858  1.00  0.00    +0.027 C 
ENDBRANCH   5   8
ENDBRANCH   2   3
ENDBRANCH   1   2
BRANCH   1  10
ATOM     10  C   UNL     1     -15.412  -8.461  17.799  1.00  0.00    +0.147 C 
ATOM     11  S   UNL     1     -14.367  -9.455  16.918  1.00  0.00    -0.052 S 
ATOM     12  N   UNL     1     -15.792  -8.671  19.142  1.00  0.00    -0.357 N 
BRANCH  12  13
ATOM     13  C   UNL     1     -15.317  -9.839  19.906  1.00  0.00    +0.114 C 
ATOM     14  C   UNL     1     -16.252 -11.032  19.768  1.00  0.00    +0.027 C 
ENDBRANCH  12  13
BRANCH  12  15
ATOM     15  C   UNL     1     -16.676  -7.768  19.900  1.00  0.00    +0.114 C 
ATOM     16  C   UNL     1     -16.323  -7.738  21.379  1.00  0.00    +0.027 C 
ENDBRANCH  12  15
ENDBRANCH   1  10
TORSDOF 7
ENDMDL
MODEL 8
REMARK VINA RESULT:    -3.724      4.725      6.237
REMARK INTER + INTRA:          -5.663
REMARK INTER:                  -4.862
REMARK INTRA:                  -0.800
REMARK UNBOUND:                -0.414
REMARK SMILES CCN(CC)C(=S)SSC(=S)N(CC)CC
REMARK SMILES IDX 8 1 9 2 10 3 11 4 12 5 13 6 14 7 15 8 16 9 6 10 7 11 3 12
REMARK SMILES IDX 2 13 1 14 4 15 5 16
REMARK H PARENT
ROOT
ATOM      1  S   UNL     1     -12.821  -9.109  17.987  1.00  0.00    -0.020 SA
ENDROOT
BRANCH   1   2
ATOM      2  S   UNL     1     -12.986  -7.457  19.221  1.00  0.00    -0.020 SA
BRANCH   2   3
ATOM      3  C   UNL     1     -13.131  -8.210  20.821  1.00  0.00    +0.147 C 
ATOM      4  S   UNL     1     -11.863  -9.195  21.340  1.00  0.00    -0.052 S 
ATOM      5  N   UNL     1     -14.317  -7.963  21.546  1.00  0.00    -0.357 N 
BRANCH   5   6
ATOM      6  C   UNL     1     -14.541  -8.541  22.885  1.00  0.00    +0.114 C 
ATOM      7  C   UNL     1     -14.079  -7.600  23.988  1.00  0.00    +0.027 C 
ENDBRANCH   5   6
BRANCH   5   8
ATOM      8  C   UNL     1     -15.458  -7.187  21.024  1.00  0.00    +0.114 C 
ATOM      9  C   UNL     1     -16.731  -8.019  20.970  1.00  0.00    +0.027 C 
ENDBRANCH   5   8
ENDBRANCH   2   3
ENDBRANCH   1   2
BRANCH   1  10
ATOM     10  C   UNL     1     -14.457  -9.804  18.050  1.00  0.00    +0.147 C 
ATOM     11  S   UNL     1     -15.730  -8.917  17.379  1.00  0.00    -0.052 S 
ATOM     12  N   UNL     1     -14.571 -11.097  18.604  1.00  0.00    -0.357 N 
BRANCH  12  13
ATOM     13  C   UNL     1     -15.868 -11.795  18.677  1.00  0.00    +0.114 C 
ATOM     14  C   UNL     1     -16.479 -11.721  20.069  1.00  0.00    +0.027 C 
ENDBRANCH  12  13
BRANCH  12  15
ATOM     15  C   UNL     1     -13.436 -11.864  19.148  1.00  0.00    +0.114 C 
ATOM     16  C   UNL     1     -13.257 -13.195  18.434  1.00  0.00    +0.027 C 
ENDBRANCH  12  15
ENDBRANCH   1  10
TORSDOF 7
ENDMDL
MODEL 9
REMARK VINA RESULT:    -3.683      8.531     11.220
REMARK INTER + INTRA:          -5.604
REMARK INTER:                  -5.228
REMARK INTRA:                  -0.377
REMARK UNBOUND:                -0.414
REMARK SMILES CCN(CC)C(=S)SSC(=S)N(CC)CC
REMARK SMILES IDX 8 1 9 2 10 3 11 4 12 5 13 6 14 7 15 8 16 9 6 10 7 11 3 12
REMARK SMILES IDX 2 13 1 14 4 15 5 16
REMARK H PARENT
ROOT
ATOM      1  S   UNL     1     -12.265 -12.845  27.464  1.00  0.00    -0.020 SA
ENDROOT
BRANCH   1   2
ATOM      2  S   UNL     1     -12.451 -10.866  26.889  1.00  0.00    -0.020 SA
BRANCH   2   3
ATOM      3  C   UNL     1     -12.163 -10.965  25.141  1.00  0.00    +0.147 C 
ATOM      4  S   UNL     1     -10.951 -12.012  24.607  1.00  0.00    -0.052 S 
ATOM      5  N   UNL     1     -12.943 -10.134  24.309  1.00  0.00    -0.357 N 
BRANCH   5   6
ATOM      6  C   UNL     1     -12.784 -10.137  22.842  1.00  0.00    +0.114 C 
ATOM      7  C   UNL     1     -14.107 -10.384  22.133  1.00  0.00    +0.027 C 
ENDBRANCH   5   6
BRANCH   5   8
ATOM      8  C   UNL     1     -13.920  -9.148  24.810  1.00  0.00    +0.114 C 
ATOM      9  C   UNL     1     -13.429  -7.720  24.621  1.00  0.00    +0.027 C 
ENDBRANCH   5   8
ENDBRANCH   2   3
ENDBRANCH   1   2
BRANCH   1  10
ATOM     10  C   UNL     1     -13.813 -13.158  28.281  1.00  0.00    +0.147 C 
ATOM     11  S   UNL     1     -14.692 -11.837  28.865  1.00  0.00    -0.052 S 
ATOM     12  N   UNL     1     -14.241 -14.502  28.326  1.00  0.00    -0.357 N 
BRANCH  12  13
ATOM     13  C   UNL     1     -15.524 -14.884  28.943  1.00  0.00    +0.114 C 
ATOM     14  C   UNL     1     -16.690 -14.736  27.976  1.00  0.00    +0.027 C 
ENDBRANCH  12  13
BRANCH  12  15
ATOM     15  C   UNL     1     -13.471 -15.632  27.775  1.00  0.00    +0.114 C 
ATOM     16  C   UNL     1     -13.076 -16.629  28.853  1.00  0.00    +0.027 C 
ENDBRANCH  12  15
ENDBRANCH   1  10
TORSDOF 7
ENDMDL
