MODEL 1
REMARK VINA RESULT:    -5.183      0.000      0.000
REMARK INTER + INTRA:          -7.812
REMARK INTER:                  -7.304
REMARK INTRA:                  -0.508
REMARK UNBOUND:                -0.508
REMARK SMILES CCN(CC)C(=S)SSC(=S)N(CC)CC
REMARK SMILES IDX 8 1 9 2 10 3 11 4 12 5 13 6 14 7 15 8 16 9 6 10 7 11 3 12
REMARK SMILES IDX 2 13 1 14 4 15 5 16
REMARK H PARENT
ROOT
ATOM      1  S   UNL     1     -37.181   6.902  12.413  1.00  0.00    -0.020 SA
ENDROOT
BRANCH   1   2
ATOM      2  S   UNL     1     -37.672   8.152  10.839  1.00  0.00    -0.020 SA
BRANCH   2   3
ATOM      3  C   UNL     1     -38.885   7.190   9.973  1.00  0.00    +0.147 C 
ATOM      4  S   UNL     1     -39.261   5.665  10.592  1.00  0.00    -0.052 S 
ATOM      5  N   UNL     1     -39.435   7.748   8.799  1.00  0.00    -0.357 N 
BRANCH   5   6
ATOM      6  C   UNL     1     -40.450   7.032   8.003  1.00  0.00    +0.114 C 
ATOM      7  C   UNL     1     -39.876   6.519   6.690  1.00  0.00    +0.027 C 
ENDBRANCH   5   6
BRANCH   5   8
ATOM      8  C   UNL     1     -39.009   9.036   8.219  1.00  0.00    +0.114 C 
ATOM      9  C   UNL     1     -39.993  10.152   8.536  1.00  0.00    +0.027 C 
ENDBRANCH   5   8
ENDBRANCH   2   3
ENDBRANCH   1   2
BRANCH   1  10
ATOM     10  C   UNL     1     -37.770   7.809  13.824  1.00  0.00    +0.147 C 
ATOM     11  S   UNL     1     -37.202   9.383  14.060  1.00  0.00    -0.052 S 
ATOM     12  N   UNL     1     -38.739   7.166  14.627  1.00  0.00    -0.357 N 
BRANCH  12  13
ATOM     13  C   UNL     1     -39.331   7.830  15.802  1.00  0.00    +0.114 C 
ATOM     14  C   UNL     1     -40.848   7.713  15.821  1.00  0.00    +0.027 C 
ENDBRANCH  12  13
BRANCH  12  15
ATOM     15  C   UNL     1     -39.246   5.806  14.376  1.00  0.00    +0.114 C 
ATOM     16  C   UNL     1     -38.549   4.772  15.248  1.00  0.00    +0.027 C 
ENDBRANCH  12  15
ENDBRANCH   1  10
TORSDOF 7
ENDMDL
MODEL 2
REMARK VINA RESULT:    -5.105      1.677      2.357
REMARK INTER + INTRA:          -7.702
REMARK INTER:                  -7.065
REMARK INTRA:                  -0.637
REMARK UNBOUND:                -0.508
REMARK SMILES CCN(CC)C(=S)SSC(=S)N(CC)CC
REMARK SMILES IDX 8 1 9 2 10 3 11 4 12 5 13 6 14 7 15 8 16 9 6 10 7 11 3 12
REMARK SMILES IDX 2 13 1 14 4 15 5 16
REMARK H PARENT
ROOT
ATOM      1  S   UNL     1     -39.873   8.838  12.726  1.00  0.00    -0.020 SA
ENDROOT
BRANCH   1   2
ATOM      2  S   UNL     1     -38.550   9.950  11.590  1.00  0.00    -0.020 SA
BRANCH   2   3
ATOM      3  C   UNL     1     -38.363   8.934  10.148  1.00  0.00    +0.147 C 
ATOM      4  S   UNL     1     -37.166   7.745  10.178  1.00  0.00    -0.052 S 
ATOM      5  N   UNL     1     -39.207   9.210   9.050  1.00  0.00    -0.357 N 
BRANCH   5   6
ATOM      6  C   UNL     1     -39.135   8.427   7.802  1.00  0.00    +0.114 C 
ATOM      7  C   UNL     1     -40.150   7.293   7.789  1.00  0.00    +0.027 C 
ENDBRANCH   5   6
BRANCH   5   8
ATOM      8  C   UNL     1     -40.171  10.326   9.009  1.00  0.00    +0.114 C 
ATOM      9  C   UNL     1     -39.656  11.487   8.171  1.00  0.00    +0.027 C 
ENDBRANCH   5   8
ENDBRANCH   2   3
ENDBRANCH   1   2
BRANCH   1  10
ATOM     10  C   UNL     1     -38.790   7.780  13.658  1.00  0.00    +0.147 C 
ATOM     11  S   UNL     1     -37.876   8.466  14.904  1.00  0.00    -0.052 S 
ATOM     12  N   UNL     1     -38.817   6.406  13.333  1.00  0.00    -0.357 N 
BRANCH  12  13
ATOM     13  C   UNL     1     -37.991   5.424  14.059  1.00  0.00    +0.114 C 
ATOM     14  C   UNL     1     -38.726   4.831  15.253  1.00  0.00    +0.027 C 
ENDBRANCH  12  13
BRANCH  12  15
ATOM     15  C   UNL     1     -39.652   5.828  12.265  1.00  0.00    +0.114 C 
ATOM     16  C   UNL     1     -38.956   4.671  11.565  1.00  0.00    +0.027 C 
ENDBRANCH  12  15
ENDBRANCH   1  10
TORSDOF 7
ENDMDL
MODEL 3
REMARK VINA RESULT:    -5.098      1.679      6.251
REMARK INTER + INTRA:          -7.693
REMARK INTER:                  -7.052
REMARK INTRA:                  -0.641
REMARK UNBOUND:                -0.508
REMARK SMILES CCN(CC)C(=S)SSC(=S)N(CC)CC
REMARK SMILES IDX 8 1 9 2 10 3 11 4 12 5 13 6 14 7 15 8 16 9 6 10 7 11 3 12
REMARK SMILES IDX 2 13 1 14 4 15 5 16
REMARK H PARENT
ROOT
ATOM      1  S   UNL     1     -38.600  10.064  11.631  1.00  0.00    -0.020 SA
ENDROOT
BRANCH   1   2
ATOM      2  S   UNL     1     -39.886   8.903  12.761  1.00  0.00    -0.020 SA
BRANCH   2   3
ATOM      3  C   UNL     1     -38.755   7.869  13.656  1.00  0.00    +0.147 C 
ATOM      4  S   UNL     1     -37.675   8.623  14.711  1.00  0.00    -0.052 S 
ATOM      5  N   UNL     1     -38.807   6.482  13.400  1.00  0.00    -0.357 N 
BRANCH   5   6
ATOM      6  C   UNL     1     -37.910   5.534  14.087  1.00  0.00    +0.114 C 
ATOM      7  C   UNL     1     -38.550   4.965  15.346  1.00  0.00    +0.027 C 
ENDBRANCH   5   6
BRANCH   5   8
ATOM      8  C   UNL     1     -39.685   5.861  12.391  1.00  0.00    +0.114 C 
ATOM      9  C   UNL     1     -38.988   4.727  11.655  1.00  0.00    +0.027 C 
ENDBRANCH   5   8
ENDBRANCH   2   3
ENDBRANCH   1   2
BRANCH   1  10
ATOM     10  C   UNL     1     -38.346   9.063  10.184  1.00  0.00    +0.147 C 
ATOM     11  S   UNL     1     -37.200   7.822  10.259  1.00  0.00    -0.052 S 
ATOM     12  N   UNL     1     -39.178   9.333   9.076  1.00  0.00    -0.357 N 
BRANCH  12  13
ATOM     13  C   UNL     1     -39.089   8.546   7.832  1.00  0.00    +0.114 C 
ATOM     14  C   UNL     1     -40.147   7.455   7.768  1.00  0.00    +0.027 C 
ENDBRANCH  12  13
BRANCH  12  15
ATOM     15  C   UNL     1     -40.197  10.398   9.050  1.00  0.00    +0.114 C 
ATOM     16  C   UNL     1     -39.757  11.582   8.204  1.00  0.00    +0.027 C 
ENDBRANCH  12  15
ENDBRANCH   1  10
TORSDOF 7
ENDMDL
MODEL 4
REMARK VINA RESULT:    -5.057      1.686      6.376
REMARK INTER + INTRA:          -7.635
REMARK INTER:                  -6.994
REMARK INTRA:                  -0.641
REMARK UNBOUND:                -0.508
REMARK SMILES CCN(CC)C(=S)SSC(=S)N(CC)CC
REMARK SMILES IDX 8 1 9 2 10 3 11 4 12 5 13 6 14 7 15 8 16 9 6 10 7 11 3 12
REMARK SMILES IDX 2 13 1 14 4 15 5 16
REMARK H PARENT
ROOT
ATOM      1  S   UNL     1     -40.163   8.906  11.571  1.00  0.00    -0.020 SA
ENDROOT
BRANCH   1   2
ATOM      2  S   UNL     1     -38.336   8.634  12.502  1.00  0.00    -0.020 SA
BRANCH   2   3
ATOM      3  C   UNL     1     -38.723   9.024  14.189  1.00  0.00    +0.147 C 
ATOM      4  S   UNL     1     -38.431  10.602  14.713  1.00  0.00    -0.052 S 
ATOM      5  N   UNL     1     -39.221   7.978  14.996  1.00  0.00    -0.357 N 
BRANCH   5   6
ATOM      6  C   UNL     1     -39.573   8.194  16.412  1.00  0.00    +0.114 C 
ATOM      7  C   UNL     1     -41.080   8.175  16.626  1.00  0.00    +0.027 C 
ENDBRANCH   5   6
BRANCH   5   8
ATOM      8  C   UNL     1     -39.364   6.582  14.542  1.00  0.00    +0.114 C 
ATOM      9  C   UNL     1     -38.357   5.662  15.216  1.00  0.00    +0.027 C 
ENDBRANCH   5   8
ENDBRANCH   2   3
ENDBRANCH   1   2
BRANCH   1  10
ATOM     10  C   UNL     1     -39.830   8.381   9.905  1.00  0.00    +0.147 C 
ATOM     11  S   UNL     1     -39.283   9.533   8.796  1.00  0.00    -0.052 S 
ATOM     12  N   UNL     1     -39.984   7.004   9.636  1.00  0.00    -0.357 N 
BRANCH  12  13
ATOM     13  C   UNL     1     -39.702   6.441   8.303  1.00  0.00    +0.114 C 
ATOM     14  C   UNL     1     -40.942   6.406   7.422  1.00  0.00    +0.027 C 
ENDBRANCH  12  13
BRANCH  12  15
ATOM     15  C   UNL     1     -40.427   6.013  10.633  1.00  0.00    +0.114 C 
ATOM     16  C   UNL     1     -39.280   5.133  11.105  1.00  0.00    +0.027 C 
ENDBRANCH  12  15
ENDBRANCH   1  10
TORSDOF 7
ENDMDL
MODEL 5
REMARK VINA RESULT:    -5.040      1.687      2.445
REMARK INTER + INTRA:          -7.611
REMARK INTER:                  -6.979
REMARK INTRA:                  -0.631
REMARK UNBOUND:                -0.508
REMARK SMILES CCN(CC)C(=S)SSC(=S)N(CC)CC
REMARK SMILES IDX 8 1 9 2 10 3 11 4 12 5 13 6 14 7 15 8 16 9 6 10 7 11 3 12
REMARK SMILES IDX 2 13 1 14 4 15 5 16
REMARK H PARENT
ROOT
ATOM      1  S   UNL     1     -38.336   8.585  12.479  1.00  0.00    -0.020 SA
ENDROOT
BRANCH   1   2
ATOM      2  S   UNL     1     -40.167   8.894  11.568  1.00  0.00    -0.020 SA
BRANCH   2   3
ATOM      3  C   UNL     1     -39.836   8.385   9.901  1.00  0.00    +0.147 C 
ATOM      4  S   UNL     1     -39.431   9.584   8.784  1.00  0.00    -0.052 S 
ATOM      5  N   UNL     1     -39.968   7.011   9.607  1.00  0.00    -0.357 N 
BRANCH   5   6
ATOM      6  C   UNL     1     -39.718   6.482   8.253  1.00  0.00    +0.114 C 
ATOM      7  C   UNL     1     -40.995   6.422   7.427  1.00  0.00    +0.027 C 
ENDBRANCH   5   6
BRANCH   5   8
ATOM      8  C   UNL     1     -40.430   6.000  10.576  1.00  0.00    +0.114 C 
ATOM      9  C   UNL     1     -39.281   5.151  11.099  1.00  0.00    +0.027 C 
ENDBRANCH   5   8
ENDBRANCH   2   3
ENDBRANCH   1   2
BRANCH   1  10
ATOM     10  C   UNL     1     -38.664   9.032  14.169  1.00  0.00    +0.147 C 
ATOM     11  S   UNL     1     -38.439  10.642  14.630  1.00  0.00    -0.052 S 
ATOM     12  N   UNL     1     -39.162   8.009  15.006  1.00  0.00    -0.357 N 
BRANCH  12  13
ATOM     13  C   UNL     1     -39.507   8.265  16.416  1.00  0.00    +0.114 C 
ATOM     14  C   UNL     1     -41.012   8.300  16.639  1.00  0.00    +0.027 C 
ENDBRANCH  12  13
BRANCH  12  15
ATOM     15  C   UNL     1     -39.385   6.620  14.567  1.00  0.00    +0.114 C 
ATOM     16  C   UNL     1     -38.380   5.662  15.186  1.00  0.00    +0.027 C 
ENDBRANCH  12  15
ENDBRANCH   1  10
TORSDOF 7
ENDMDL
MODEL 6
REMARK VINA RESULT:    -4.990      2.436      6.741
REMARK INTER + INTRA:          -7.540
REMARK INTER:                  -7.040
REMARK INTRA:                  -0.500
REMARK UNBOUND:                -0.508
REMARK SMILES CCN(CC)C(=S)SSC(=S)N(CC)CC
REMARK SMILES IDX 8 1 9 2 10 3 11 4 12 5 13 6 14 7 15 8 16 9 6 10 7 11 3 12
REMARK SMILES IDX 2 13 1 14 4 15 5 16
REMARK H PARENT
ROOT
ATOM      1  S   UNL     1     -40.251   7.978  12.830  1.00  0.00    -0.020 SA
ENDROOT
BRANCH   1   2
ATOM      2  S   UNL     1     -39.990   9.890  13.575  1.00  0.00    -0.020 SA
BRANCH   2   3
ATOM      3  C   UNL     1     -38.670   9.652  14.737  1.00  0.00    +0.147 C 
ATOM      4  S   UNL     1     -37.112   9.457  14.119  1.00  0.00    -0.052 S 
ATOM      5  N   UNL     1     -39.014   9.607  16.105  1.00  0.00    -0.357 N 
BRANCH   5   6
ATOM      6  C   UNL     1     -37.995   9.412  17.153  1.00  0.00    +0.114 C 
ATOM      7  C   UNL     1     -38.325  10.201  18.412  1.00  0.00    +0.027 C 
ENDBRANCH   5   6
BRANCH   5   8
ATOM      8  C   UNL     1     -40.398   9.671  16.611  1.00  0.00    +0.114 C 
ATOM      9  C   UNL     1     -41.001   8.284  16.786  1.00  0.00    +0.027 C 
ENDBRANCH   5   8
ENDBRANCH   2   3
ENDBRANCH   1   2
BRANCH   1  10
ATOM     10  C   UNL     1     -39.842   8.173  11.111  1.00  0.00    +0.147 C 
ATOM     11  S   UNL     1     -39.455   9.720  10.550  1.00  0.00    -0.052 S 
ATOM     12  N   UNL     1     -39.801   6.994  10.335  1.00  0.00    -0.357 N 
BRANCH  12  13
ATOM     13  C   UNL     1     -39.438   7.022   8.906  1.00  0.00    +0.114 C 
ATOM     14  C   UNL     1     -40.625   6.708   8.008  1.00  0.00    +0.027 C 
ENDBRANCH  12  13
BRANCH  12  15
ATOM     15  C   UNL     1     -40.107   5.651  10.859  1.00  0.00    +0.114 C 
ATOM     16  C   UNL     1     -38.844   4.866  11.176  1.00  0.00    +0.027 C 
ENDBRANCH  12  15
ENDBRANCH   1  10
TORSDOF 7
ENDMDL
MODEL 7
REMARK VINA RESULT:    -4.948      1.579      2.260
REMARK INTER + INTRA:          -7.481
REMARK INTER:                  -6.714
REMARK INTRA:                  -0.767
REMARK UNBOUND:                -0.508
REMARK SMILES CCN(CC)C(=S)SSC(=S)N(CC)CC
REMARK SMILES IDX 8 1 9 2 10 3 11 4 12 5 13 6 14 7 15 8 16 9 6 10 7 11 3 12
REMARK SMILES IDX 2 13 1 14 4 15 5 16
REMARK H PARENT
ROOT
ATOM      1  S   UNL     1     -37.216   9.042  13.769  1.00  0.00    -0.020 SA
ENDROOT
BRANCH   1   2
ATOM      2  S   UNL     1     -37.297   9.020  11.702  1.00  0.00    -0.020 SA
BRANCH   2   3
ATOM      3  C   UNL     1     -37.768   7.341  11.373  1.00  0.00    +0.147 C 
ATOM      4  S   UNL     1     -36.731   6.120  11.905  1.00  0.00    -0.052 S 
ATOM      5  N   UNL     1     -38.965   7.135  10.654  1.00  0.00    -0.357 N 
BRANCH   5   6
ATOM      6  C   UNL     1     -39.448   5.780  10.326  1.00  0.00    +0.114 C 
ATOM      7  C   UNL     1     -40.512   5.309  11.308  1.00  0.00    +0.027 C 
ENDBRANCH   5   6
BRANCH   5   8
ATOM      8  C   UNL     1     -39.796   8.223  10.105  1.00  0.00    +0.114 C 
ATOM      9  C   UNL     1     -39.797   8.221   8.584  1.00  0.00    +0.027 C 
ENDBRANCH   5   8
ENDBRANCH   2   3
ENDBRANCH   1   2
BRANCH   1  10
ATOM     10  C   UNL     1     -38.925   8.868  14.225  1.00  0.00    +0.147 C 
ATOM     11  S   UNL     1     -40.030  10.010  13.646  1.00  0.00    -0.052 S 
ATOM     12  N   UNL     1     -39.260   7.734  14.996  1.00  0.00    -0.357 N 
BRANCH  12  13
ATOM     13  C   UNL     1     -40.650   7.460  15.405  1.00  0.00    +0.114 C 
ATOM     14  C   UNL     1     -40.974   8.056  16.767  1.00  0.00    +0.027 C 
ENDBRANCH  12  13
BRANCH  12  15
ATOM     15  C   UNL     1     -38.282   6.732  15.457  1.00  0.00    +0.114 C 
ATOM     16  C   UNL     1     -38.710   5.317  15.101  1.00  0.00    +0.027 C 
ENDBRANCH  12  15
ENDBRANCH   1  10
TORSDOF 7
ENDMDL
MODEL 8
REMARK VINA RESULT:    -4.933      1.288      2.194
REMARK INTER + INTRA:          -7.460
REMARK INTER:                  -7.246
REMARK INTRA:                  -0.214
REMARK UNBOUND:                -0.508
REMARK SMILES CCN(CC)C(=S)SSC(=S)N(CC)CC
REMARK SMILES IDX 8 1 9 2 10 3 11 4 12 5 13 6 14 7 15 8 16 9 6 10 7 11 3 12
REMARK SMILES IDX 2 13 1 14 4 15 5 16
REMARK H PARENT
ROOT
ATOM      1  S   UNL     1     -37.589   8.543  12.084  1.00  0.00    -0.020 SA
ENDROOT
BRANCH   1   2
ATOM      2  S   UNL     1     -39.615   8.635  11.673  1.00  0.00    -0.020 SA
BRANCH   2   3
ATOM      3  C   UNL     1     -39.803   7.343  10.472  1.00  0.00    +0.147 C 
ATOM      4  S   UNL     1     -40.440   5.872  10.999  1.00  0.00    -0.052 S 
ATOM      5  N   UNL     1     -39.374   7.618   9.156  1.00  0.00    -0.357 N 
BRANCH   5   6
ATOM      6  C   UNL     1     -39.483   6.614   8.080  1.00  0.00    +0.114 C 
ATOM      7  C   UNL     1     -40.843   6.665   7.399  1.00  0.00    +0.027 C 
ENDBRANCH   5   6
BRANCH   5   8
ATOM      8  C   UNL     1     -38.718   8.874   8.746  1.00  0.00    +0.114 C 
ATOM      9  C   UNL     1     -39.731   9.931   8.330  1.00  0.00    +0.027 C 
ENDBRANCH   5   8
ENDBRANCH   2   3
ENDBRANCH   1   2
BRANCH   1  10
ATOM     10  C   UNL     1     -37.416   6.935  12.821  1.00  0.00    +0.147 C 
ATOM     11  S   UNL     1     -36.669   5.716  11.919  1.00  0.00    -0.052 S 
ATOM     12  N   UNL     1     -37.861   6.801  14.154  1.00  0.00    -0.357 N 
BRANCH  12  13
ATOM     13  C   UNL     1     -37.737   5.527  14.886  1.00  0.00    +0.114 C 
ATOM     14  C   UNL     1     -39.025   4.717  14.848  1.00  0.00    +0.027 C 
ENDBRANCH  12  13
BRANCH  12  15
ATOM     15  C   UNL     1     -38.476   7.892  14.932  1.00  0.00    +0.114 C 
ATOM     16  C   UNL     1     -37.545   8.408  16.018  1.00  0.00    +0.027 C 
ENDBRANCH  12  15
ENDBRANCH   1  10
TORSDOF 7
ENDMDL
MODEL 9
REMARK VINA RESULT:    -4.896      1.709      5.699
REMARK INTER + INTRA:          -7.408
REMARK INTER:                  -6.663
REMARK INTRA:                  -0.745
REMARK UNBOUND:                -0.508
REMARK SMILES CCN(CC)C(=S)SSC(=S)N(CC)CC
REMARK SMILES IDX 8 1 9 2 10 3 11 4 12 5 13 6 14 7 15 8 16 9 6 10 7 11 3 12
REMARK SMILES IDX 2 13 1 14 4 15 5 16
REMARK H PARENT
ROOT
ATOM      1  S   UNL     1     -40.124   9.034  11.600  1.00  0.00    -0.020 SA
ENDROOT
BRANCH   1   2
ATOM      2  S   UNL     1     -38.232   9.397  12.354  1.00  0.00    -0.020 SA
BRANCH   2   3
ATOM      3  C   UNL     1     -37.614   7.751  12.596  1.00  0.00    +0.147 C 
ATOM      4  S   UNL     1     -36.627   7.102  11.390  1.00  0.00    -0.052 S 
ATOM      5  N   UNL     1     -38.016   7.076  13.768  1.00  0.00    -0.357 N 
BRANCH   5   6
ATOM      6  C   UNL     1     -37.562   5.704  14.066  1.00  0.00    +0.114 C 
ATOM      7  C   UNL     1     -38.682   4.854  14.649  1.00  0.00    +0.027 C 
ENDBRANCH   5   6
BRANCH   5   8
ATOM      8  C   UNL     1     -38.968   7.625  14.752  1.00  0.00    +0.114 C 
ATOM      9  C   UNL     1     -38.254   8.238  15.948  1.00  0.00    +0.027 C 
ENDBRANCH   5   8
ENDBRANCH   2   3
ENDBRANCH   1   2
BRANCH   1  10
ATOM     10  C   UNL     1     -39.779   8.411   9.971  1.00  0.00    +0.147 C 
ATOM     11  S   UNL     1     -39.143   9.478   8.824  1.00  0.00    -0.052 S 
ATOM     12  N   UNL     1     -39.999   7.033   9.763  1.00  0.00    -0.357 N 
BRANCH  12  13
ATOM     13  C   UNL     1     -39.715   6.391   8.466  1.00  0.00    +0.114 C 
ATOM     14  C   UNL     1     -40.931   6.385   7.551  1.00  0.00    +0.027 C 
ENDBRANCH  12  13
BRANCH  12  15
ATOM     15  C   UNL     1     -40.520   6.116  10.793  1.00  0.00    +0.114 C 
ATOM     16  C   UNL     1     -39.588   4.937  11.026  1.00  0.00    +0.027 C 
ENDBRANCH  12  15
ENDBRANCH   1  10
TORSDOF 7
ENDMDL
