MODEL 1
REMARK VINA RESULT:    -7.704      0.000      0.000
REMARK INTER + INTRA:         -10.268
REMARK INTER:                  -9.505
REMARK INTRA:                  -0.763
REMARK UNBOUND:                -0.763
REMARK SMILES COC(=O)Nc1nc2ccc(Sc3ccccc3)cc2[nH]1
REMARK SMILES IDX 21 1 7 2 20 3 8 4 19 5 11 6 6 7 9 8 10 9 12 11 13 12 14 13
REMARK SMILES IDX 18 14 15 15 17 16 16 17 5 18 3 19 4 20 2 22 1 23
REMARK H PARENT 21 10 5 21
ROOT
ATOM      1  N   UNL     1     -25.801  13.943 -16.173  1.00  0.00    -0.324 N 
ATOM      2  N   UNL     1     -26.308  15.780 -15.060  1.00  0.00    -0.213 NA
ATOM      3  C   UNL     1     -25.859  13.563 -14.857  1.00  0.00    +0.068 A 
ATOM      4  C   UNL     1     -26.176  14.735 -14.183  1.00  0.00    +0.091 A 
ATOM      5  C   UNL     1     -25.665  12.336 -14.218  1.00  0.00    +0.043 A 
ATOM      6  C   UNL     1     -25.817  12.317 -12.821  1.00  0.00    +0.014 A 
ATOM      7  C   UNL     1     -26.079  15.286 -16.253  1.00  0.00    +0.210 A 
ATOM      8  C   UNL     1     -26.311  14.708 -12.789  1.00  0.00    +0.032 A 
ATOM      9  C   UNL     1     -26.126  13.490 -12.119  1.00  0.00    +0.018 A 
ATOM     10  H   UNL     1     -25.593  13.338 -16.950  1.00  0.00    +0.170 HD
ENDROOT
BRANCH   6  11
ATOM     11  S   UNL     1     -25.590  10.798 -11.904  1.00  0.00    -0.090 SA
BRANCH  11  12
ATOM     12  C   UNL     1     -23.881  10.924 -11.403  1.00  0.00    +0.012 A 
ATOM     13  C   UNL     1     -23.519  10.972 -10.052  1.00  0.00    +0.015 A 
ATOM     14  C   UNL     1     -22.885  11.001 -12.381  1.00  0.00    +0.015 A 
ATOM     15  C   UNL     1     -22.175  11.078  -9.686  1.00  0.00    +0.001 A 
ATOM     16  C   UNL     1     -21.541  11.107 -12.015  1.00  0.00    +0.001 A 
ATOM     17  C   UNL     1     -21.187  11.143 -10.667  1.00  0.00    +0.000 A 
ENDBRANCH  11  12
ENDBRANCH   6  11
BRANCH   7  18
ATOM     18  N   UNL     1     -26.089  15.923 -17.463  1.00  0.00    -0.261 N 
ATOM     19  C   UNL     1     -25.229  15.614 -18.476  1.00  0.00    +0.413 C 
ATOM     20  O   UNL     1     -24.344  14.773 -18.506  1.00  0.00    -0.224 OA
ATOM     21  H   UNL     1     -26.744  16.662 -17.660  1.00  0.00    +0.176 HD
BRANCH  19  22
ATOM     22  O   UNL     1     -25.519  16.437 -19.525  1.00  0.00    -0.453 OA
ATOM     23  C   UNL     1     -26.875  16.353 -19.970  1.00  0.00    +0.284 C 
ENDBRANCH  19  22
ENDBRANCH   7  18
TORSDOF 4
ENDMDL
MODEL 2
REMARK VINA RESULT:    -7.226      3.424      3.917
REMARK INTER + INTRA:          -9.679
REMARK INTER:                  -8.986
REMARK INTRA:                  -0.693
REMARK UNBOUND:                -0.763
REMARK SMILES COC(=O)Nc1nc2ccc(Sc3ccccc3)cc2[nH]1
REMARK SMILES IDX 21 1 7 2 20 3 8 4 19 5 11 6 6 7 9 8 10 9 12 11 13 12 14 13
REMARK SMILES IDX 18 14 15 15 17 16 16 17 5 18 3 19 4 20 2 22 1 23
REMARK H PARENT 21 10 5 21
ROOT
ATOM      1  N   UNL     1     -21.209  13.596 -16.674  1.00  0.00    -0.324 N 
ATOM      2  N   UNL     1     -22.837  15.086 -16.675  1.00  0.00    -0.213 NA
ATOM      3  C   UNL     1     -22.210  13.037 -15.923  1.00  0.00    +0.068 A 
ATOM      4  C   UNL     1     -23.216  13.994 -15.938  1.00  0.00    +0.091 A 
ATOM      5  C   UNL     1     -22.319  11.817 -15.250  1.00  0.00    +0.043 A 
ATOM      6  C   UNL     1     -23.525  11.571 -14.572  1.00  0.00    +0.014 A 
ATOM      7  C   UNL     1     -21.627  14.830 -17.111  1.00  0.00    +0.210 A 
ATOM      8  C   UNL     1     -24.409  13.744 -15.248  1.00  0.00    +0.032 A 
ATOM      9  C   UNL     1     -24.549  12.528 -14.565  1.00  0.00    +0.018 A 
ATOM     10  H   UNL     1     -20.319  13.170 -16.876  1.00  0.00    +0.170 HD
ENDROOT
BRANCH   6  11
ATOM     11  S   UNL     1     -23.767  10.041 -13.677  1.00  0.00    -0.090 SA
BRANCH  11  12
ATOM     12  C   UNL     1     -23.141  10.459 -12.059  1.00  0.00    +0.012 A 
ATOM     13  C   UNL     1     -23.975  10.476 -10.935  1.00  0.00    +0.015 A 
ATOM     14  C   UNL     1     -21.792  10.802 -11.915  1.00  0.00    +0.015 A 
ATOM     15  C   UNL     1     -23.461  10.814  -9.681  1.00  0.00    +0.001 A 
ATOM     16  C   UNL     1     -21.279  11.140 -10.660  1.00  0.00    +0.001 A 
ATOM     17  C   UNL     1     -22.114  11.143  -9.543  1.00  0.00    +0.000 A 
ENDBRANCH  11  12
ENDBRANCH   6  11
BRANCH   7  18
ATOM     18  N   UNL     1     -20.812  15.604 -17.889  1.00  0.00    -0.261 N 
ATOM     19  C   UNL     1     -20.104  15.114 -18.947  1.00  0.00    +0.413 C 
ATOM     20  O   UNL     1     -20.057  13.974 -19.380  1.00  0.00    -0.224 OA
ATOM     21  H   UNL     1     -20.698  16.588 -17.709  1.00  0.00    +0.176 HD
BRANCH  19  22
ATOM     22  O   UNL     1     -19.408  16.154 -19.490  1.00  0.00    -0.453 OA
ATOM     23  C   UNL     1     -18.700  15.816 -20.685  1.00  0.00    +0.284 C 
ENDBRANCH  19  22
ENDBRANCH   7  18
TORSDOF 4
ENDMDL
MODEL 3
REMARK VINA RESULT:    -7.147      2.637      3.397
REMARK INTER + INTRA:          -9.581
REMARK INTER:                  -8.769
REMARK INTRA:                  -0.812
REMARK UNBOUND:                -0.763
REMARK SMILES COC(=O)Nc1nc2ccc(Sc3ccccc3)cc2[nH]1
REMARK SMILES IDX 21 1 7 2 20 3 8 4 19 5 11 6 6 7 9 8 10 9 12 11 13 12 14 13
REMARK SMILES IDX 18 14 15 15 17 16 16 17 5 18 3 19 4 20 2 22 1 23
REMARK H PARENT 21 10 5 21
ROOT
ATOM      1  N   UNL     1     -25.442  13.667 -15.119  1.00  0.00    -0.324 N 
ATOM      2  N   UNL     1     -24.126  14.844 -16.442  1.00  0.00    -0.213 NA
ATOM      3  C   UNL     1     -24.235  13.018 -15.097  1.00  0.00    +0.068 A 
ATOM      4  C   UNL     1     -23.430  13.777 -15.937  1.00  0.00    +0.091 A 
ATOM      5  C   UNL     1     -23.791  11.868 -14.439  1.00  0.00    +0.043 A 
ATOM      6  C   UNL     1     -22.453  11.492 -14.649  1.00  0.00    +0.014 A 
ATOM      7  C   UNL     1     -25.334  14.764 -15.939  1.00  0.00    +0.210 A 
ATOM      8  C   UNL     1     -22.102  13.386 -16.151  1.00  0.00    +0.032 A 
ATOM      9  C   UNL     1     -21.626  12.237 -15.501  1.00  0.00    +0.018 A 
ATOM     10  H   UNL     1     -26.268  13.388 -14.614  1.00  0.00    +0.170 HD
ENDROOT
BRANCH   6  11
ATOM     11  S   UNL     1     -21.785  10.035 -13.855  1.00  0.00    -0.090 SA
BRANCH  11  12
ATOM     12  C   UNL     1     -22.250  10.299 -12.152  1.00  0.00    +0.012 A 
ATOM     13  C   UNL     1     -21.525  11.163 -11.323  1.00  0.00    +0.015 A 
ATOM     14  C   UNL     1     -23.347   9.608 -11.628  1.00  0.00    +0.015 A 
ATOM     15  C   UNL     1     -21.906  11.346  -9.991  1.00  0.00    +0.001 A 
ATOM     16  C   UNL     1     -23.727   9.792 -10.296  1.00  0.00    +0.001 A 
ATOM     17  C   UNL     1     -23.007  10.663  -9.479  1.00  0.00    +0.000 A 
ENDBRANCH  11  12
ENDBRANCH   6  11
BRANCH   7  18
ATOM     18  N   UNL     1     -26.404  15.592 -16.137  1.00  0.00    -0.261 N 
ATOM     19  C   UNL     1     -27.225  16.003 -15.128  1.00  0.00    +0.413 C 
ATOM     20  O   UNL     1     -27.178  15.735 -13.938  1.00  0.00    -0.224 OA
ATOM     21  H   UNL     1     -26.634  15.939 -17.053  1.00  0.00    +0.176 HD
BRANCH  19  22
ATOM     22  O   UNL     1     -28.175  16.813 -15.678  1.00  0.00    -0.453 OA
ATOM     23  C   UNL     1     -29.311  16.111 -16.187  1.00  0.00    +0.284 C 
ENDBRANCH  19  22
ENDBRANCH   7  18
TORSDOF 4
ENDMDL
MODEL 4
REMARK VINA RESULT:    -6.915      5.383      6.683
REMARK INTER + INTRA:          -9.295
REMARK INTER:                  -8.671
REMARK INTRA:                  -0.624
REMARK UNBOUND:                -0.763
REMARK SMILES COC(=O)Nc1nc2ccc(Sc3ccccc3)cc2[nH]1
REMARK SMILES IDX 21 1 7 2 20 3 8 4 19 5 11 6 6 7 9 8 10 9 12 11 13 12 14 13
REMARK SMILES IDX 18 14 15 15 17 16 16 17 5 18 3 19 4 20 2 22 1 23
REMARK H PARENT 21 10 5 21
ROOT
ATOM      1  N   UNL     1     -20.105   9.962 -16.803  1.00  0.00    -0.324 N 
ATOM      2  N   UNL     1     -19.818  12.044 -17.475  1.00  0.00    -0.213 NA
ATOM      3  C   UNL     1     -21.070  10.687 -16.153  1.00  0.00    +0.068 A 
ATOM      4  C   UNL     1     -20.865  11.988 -16.592  1.00  0.00    +0.091 A 
ATOM      5  C   UNL     1     -22.072  10.329 -15.248  1.00  0.00    +0.043 A 
ATOM      6  C   UNL     1     -22.906  11.361 -14.783  1.00  0.00    +0.014 A 
ATOM      7  C   UNL     1     -19.372  10.817 -17.591  1.00  0.00    +0.210 A 
ATOM      8  C   UNL     1     -21.692  13.011 -16.112  1.00  0.00    +0.032 A 
ATOM      9  C   UNL     1     -22.709  12.683 -15.203  1.00  0.00    +0.018 A 
ATOM     10  H   UNL     1     -19.960   8.969 -16.719  1.00  0.00    +0.170 HD
ENDROOT
BRANCH   6  11
ATOM     11  S   UNL     1     -24.219  11.011 -13.619  1.00  0.00    -0.090 SA
BRANCH  11  12
ATOM     12  C   UNL     1     -23.344  11.022 -12.064  1.00  0.00    +0.012 A 
ATOM     13  C   UNL     1     -21.956  11.193 -12.008  1.00  0.00    +0.015 A 
ATOM     14  C   UNL     1     -24.057  10.831 -10.876  1.00  0.00    +0.015 A 
ATOM     15  C   UNL     1     -21.294  11.191 -10.778  1.00  0.00    +0.001 A 
ATOM     16  C   UNL     1     -23.395  10.828  -9.646  1.00  0.00    +0.001 A 
ATOM     17  C   UNL     1     -22.013  11.011  -9.598  1.00  0.00    +0.000 A 
ENDBRANCH  11  12
ENDBRANCH   6  11
BRANCH   7  18
ATOM     18  N   UNL     1     -18.339  10.346 -18.352  1.00  0.00    -0.261 N 
ATOM     19  C   UNL     1     -17.254   9.709 -17.825  1.00  0.00    +0.413 C 
ATOM     20  O   UNL     1     -17.003   9.450 -16.659  1.00  0.00    -0.224 OA
ATOM     21  H   UNL     1     -18.336  10.454 -19.353  1.00  0.00    +0.176 HD
BRANCH  19  22
ATOM     22  O   UNL     1     -16.430   9.379 -18.862  1.00  0.00    -0.453 OA
ATOM     23  C   UNL     1     -17.002   8.447 -19.783  1.00  0.00    +0.284 C 
ENDBRANCH  19  22
ENDBRANCH   7  18
TORSDOF 4
ENDMDL
MODEL 5
REMARK VINA RESULT:    -6.627      2.595      2.944
REMARK INTER + INTRA:          -8.939
REMARK INTER:                  -8.227
REMARK INTRA:                  -0.712
REMARK UNBOUND:                -0.763
REMARK SMILES COC(=O)Nc1nc2ccc(Sc3ccccc3)cc2[nH]1
REMARK SMILES IDX 21 1 7 2 20 3 8 4 19 5 11 6 6 7 9 8 10 9 12 11 13 12 14 13
REMARK SMILES IDX 18 14 15 15 17 16 16 17 5 18 3 19 4 20 2 22 1 23
REMARK H PARENT 21 10 5 21
ROOT
ATOM      1  N   UNL     1     -23.107  13.604 -15.975  1.00  0.00    -0.324 N 
ATOM      2  N   UNL     1     -24.123  15.561 -16.057  1.00  0.00    -0.213 NA
ATOM      3  C   UNL     1     -24.068  13.553 -14.999  1.00  0.00    +0.068 A 
ATOM      4  C   UNL     1     -24.687  14.794 -15.072  1.00  0.00    +0.091 A 
ATOM      5  C   UNL     1     -24.437  12.561 -14.086  1.00  0.00    +0.043 A 
ATOM      6  C   UNL     1     -25.499  12.861 -13.218  1.00  0.00    +0.014 A 
ATOM      7  C   UNL     1     -23.174  14.831 -16.591  1.00  0.00    +0.210 A 
ATOM      8  C   UNL     1     -25.736  15.088 -14.192  1.00  0.00    +0.032 A 
ATOM      9  C   UNL     1     -26.131  14.111 -13.265  1.00  0.00    +0.018 A 
ATOM     10  H   UNL     1     -22.463  12.865 -16.205  1.00  0.00    +0.170 HD
ENDROOT
BRANCH   6  11
ATOM     11  S   UNL     1     -26.050  11.662 -12.010  1.00  0.00    -0.090 SA
BRANCH  11  12
ATOM     12  C   UNL     1     -24.541  10.776 -11.658  1.00  0.00    +0.012 A 
ATOM     13  C   UNL     1     -23.593  11.276 -10.758  1.00  0.00    +0.015 A 
ATOM     14  C   UNL     1     -24.288   9.568 -12.315  1.00  0.00    +0.015 A 
ATOM     15  C   UNL     1     -22.417  10.567 -10.505  1.00  0.00    +0.001 A 
ATOM     16  C   UNL     1     -23.111   8.858 -12.062  1.00  0.00    +0.001 A 
ATOM     17  C   UNL     1     -22.178   9.358 -11.155  1.00  0.00    +0.000 A 
ENDBRANCH  11  12
ENDBRANCH   6  11
BRANCH   7  18
ATOM     18  N   UNL     1     -22.319  15.145 -17.610  1.00  0.00    -0.261 N 
ATOM     19  C   UNL     1     -21.079  14.590 -17.741  1.00  0.00    +0.413 C 
ATOM     20  O   UNL     1     -20.523  13.768 -17.031  1.00  0.00    -0.224 OA
ATOM     21  H   UNL     1     -22.574  15.811 -18.320  1.00  0.00    +0.176 HD
BRANCH  19  22
ATOM     22  O   UNL     1     -20.508  15.125 -18.859  1.00  0.00    -0.453 OA
ATOM     23  C   UNL     1     -20.167  14.159 -19.855  1.00  0.00    +0.284 C 
ENDBRANCH  19  22
ENDBRANCH   7  18
TORSDOF 4
ENDMDL
MODEL 6
REMARK VINA RESULT:    -6.624      4.024      5.263
REMARK INTER + INTRA:          -8.936
REMARK INTER:                  -8.230
REMARK INTRA:                  -0.706
REMARK UNBOUND:                -0.763
REMARK SMILES COC(=O)Nc1nc2ccc(Sc3ccccc3)cc2[nH]1
REMARK SMILES IDX 21 1 7 2 20 3 8 4 19 5 11 6 6 7 9 8 10 9 12 11 13 12 14 13
REMARK SMILES IDX 18 14 15 15 17 16 16 17 5 18 3 19 4 20 2 22 1 23
REMARK H PARENT 21 10 5 21
ROOT
ATOM      1  N   UNL     1     -24.465  11.833 -13.487  1.00  0.00    -0.324 N 
ATOM      2  N   UNL     1     -25.352  12.013 -11.475  1.00  0.00    -0.213 NA
ATOM      3  C   UNL     1     -23.851  10.865 -12.735  1.00  0.00    +0.068 A 
ATOM      4  C   UNL     1     -24.425  11.003 -11.478  1.00  0.00    +0.091 A 
ATOM      5  C   UNL     1     -22.873   9.913 -13.034  1.00  0.00    +0.043 A 
ATOM      6  C   UNL     1     -22.480   9.058 -11.991  1.00  0.00    +0.014 A 
ATOM      7  C   UNL     1     -25.364  12.501 -12.692  1.00  0.00    +0.210 A 
ATOM      8  C   UNL     1     -24.016  10.155 -10.442  1.00  0.00    +0.032 A 
ATOM      9  C   UNL     1     -23.037   9.186 -10.711  1.00  0.00    +0.018 A 
ATOM     10  H   UNL     1     -24.288  12.020 -14.461  1.00  0.00    +0.170 HD
ENDROOT
BRANCH   6  11
ATOM     11  S   UNL     1     -21.233   7.805 -12.267  1.00  0.00    -0.090 SA
BRANCH  11  12
ATOM     12  C   UNL     1     -22.229   6.342 -12.498  1.00  0.00    +0.012 A 
ATOM     13  C   UNL     1     -21.959   5.157 -11.803  1.00  0.00    +0.015 A 
ATOM     14  C   UNL     1     -23.287   6.371 -13.413  1.00  0.00    +0.015 A 
ATOM     15  C   UNL     1     -22.750   4.024 -12.008  1.00  0.00    +0.001 A 
ATOM     16  C   UNL     1     -24.077   5.237 -13.617  1.00  0.00    +0.001 A 
ATOM     17  C   UNL     1     -23.809   4.065 -12.912  1.00  0.00    +0.000 A 
ENDBRANCH  11  12
ENDBRANCH   6  11
BRANCH   7  18
ATOM     18  N   UNL     1     -26.117  13.523 -13.200  1.00  0.00    -0.261 N 
ATOM     19  C   UNL     1     -25.685  14.340 -14.204  1.00  0.00    +0.413 C 
ATOM     20  O   UNL     1     -24.622  14.329 -14.803  1.00  0.00    -0.224 OA
ATOM     21  H   UNL     1     -27.039  13.718 -12.848  1.00  0.00    +0.176 HD
BRANCH  19  22
ATOM     22  O   UNL     1     -26.682  15.237 -14.458  1.00  0.00    -0.453 OA
ATOM     23  C   UNL     1     -26.834  15.556 -15.843  1.00  0.00    +0.284 C 
ENDBRANCH  19  22
ENDBRANCH   7  18
TORSDOF 4
ENDMDL
MODEL 7
REMARK VINA RESULT:    -6.560      7.883     10.271
REMARK INTER + INTRA:          -8.857
REMARK INTER:                  -8.228
REMARK INTRA:                  -0.629
REMARK UNBOUND:                -0.763
REMARK SMILES COC(=O)Nc1nc2ccc(Sc3ccccc3)cc2[nH]1
REMARK SMILES IDX 21 1 7 2 20 3 8 4 19 5 11 6 6 7 9 8 10 9 12 11 13 12 14 13
REMARK SMILES IDX 18 14 15 15 17 16 16 17 5 18 3 19 4 20 2 22 1 23
REMARK H PARENT 21 10 5 21
ROOT
ATOM      1  N   UNL     1     -22.907   3.896 -14.111  1.00  0.00    -0.324 N 
ATOM      2  N   UNL     1     -21.590   3.591 -12.367  1.00  0.00    -0.213 NA
ATOM      3  C   UNL     1     -22.876   5.106 -13.467  1.00  0.00    +0.068 A 
ATOM      4  C   UNL     1     -22.045   4.884 -12.376  1.00  0.00    +0.091 A 
ATOM      5  C   UNL     1     -23.484   6.335 -13.733  1.00  0.00    +0.043 A 
ATOM      6  C   UNL     1     -23.213   7.384 -12.838  1.00  0.00    +0.014 A 
ATOM      7  C   UNL     1     -22.118   3.010 -13.418  1.00  0.00    +0.210 A 
ATOM      8  C   UNL     1     -21.792   5.933 -11.483  1.00  0.00    +0.032 A 
ATOM      9  C   UNL     1     -22.387   7.180 -11.725  1.00  0.00    +0.018 A 
ATOM     10  H   UNL     1     -23.419   3.693 -14.954  1.00  0.00    +0.170 HD
ENDROOT
BRANCH   6  11
ATOM     11  S   UNL     1     -23.942   8.999 -13.086  1.00  0.00    -0.090 SA
BRANCH  11  12
ATOM     12  C   UNL     1     -23.175   9.952 -11.786  1.00  0.00    +0.012 A 
ATOM     13  C   UNL     1     -21.925  10.555 -11.964  1.00  0.00    +0.015 A 
ATOM     14  C   UNL     1     -23.825  10.077 -10.554  1.00  0.00    +0.015 A 
ATOM     15  C   UNL     1     -21.343  11.290 -10.928  1.00  0.00    +0.001 A 
ATOM     16  C   UNL     1     -23.242  10.812  -9.519  1.00  0.00    +0.001 A 
ATOM     17  C   UNL     1     -22.002  11.420  -9.708  1.00  0.00    +0.000 A 
ENDBRANCH  11  12
ENDBRANCH   6  11
BRANCH   7  18
ATOM     18  N   UNL     1     -21.973   1.722 -13.851  1.00  0.00    -0.261 N 
ATOM     19  C   UNL     1     -21.543   1.401 -15.106  1.00  0.00    +0.413 C 
ATOM     20  O   UNL     1     -21.226   2.139 -16.024  1.00  0.00    -0.224 OA
ATOM     21  H   UNL     1     -22.182   0.942 -13.251  1.00  0.00    +0.176 HD
BRANCH  19  22
ATOM     22  O   UNL     1     -21.516   0.040 -15.193  1.00  0.00    -0.453 OA
ATOM     23  C   UNL     1     -21.565  -0.623 -13.927  1.00  0.00    +0.284 C 
ENDBRANCH  19  22
ENDBRANCH   7  18
TORSDOF 4
ENDMDL
MODEL 8
REMARK VINA RESULT:    -6.531      1.486      1.944
REMARK INTER + INTRA:          -8.821
REMARK INTER:                  -8.243
REMARK INTRA:                  -0.578
REMARK UNBOUND:                -0.763
REMARK SMILES COC(=O)Nc1nc2ccc(Sc3ccccc3)cc2[nH]1
REMARK SMILES IDX 21 1 7 2 20 3 8 4 19 5 11 6 6 7 9 8 10 9 12 11 13 12 14 13
REMARK SMILES IDX 18 14 15 15 17 16 16 17 5 18 3 19 4 20 2 22 1 23
REMARK H PARENT 21 10 5 21
ROOT
ATOM      1  N   UNL     1     -25.509  14.024 -17.008  1.00  0.00    -0.324 N 
ATOM      2  N   UNL     1     -26.534  15.069 -15.358  1.00  0.00    -0.213 NA
ATOM      3  C   UNL     1     -25.214  13.298 -15.883  1.00  0.00    +0.068 A 
ATOM      4  C   UNL     1     -25.868  13.978 -14.864  1.00  0.00    +0.091 A 
ATOM      5  C   UNL     1     -24.455  12.144 -15.674  1.00  0.00    +0.043 A 
ATOM      6  C   UNL     1     -24.377  11.665 -14.355  1.00  0.00    +0.014 A 
ATOM      7  C   UNL     1     -26.308  15.082 -16.649  1.00  0.00    +0.210 A 
ATOM      8  C   UNL     1     -25.773  13.500 -13.551  1.00  0.00    +0.032 A 
ATOM      9  C   UNL     1     -25.020  12.342 -13.309  1.00  0.00    +0.018 A 
ATOM     10  H   UNL     1     -25.195  13.813 -17.941  1.00  0.00    +0.170 HD
ENDROOT
BRANCH   6  11
ATOM     11  S   UNL     1     -23.430  10.196 -13.977  1.00  0.00    -0.090 SA
BRANCH  11  12
ATOM     12  C   UNL     1     -22.938  10.499 -12.289  1.00  0.00    +0.012 A 
ATOM     13  C   UNL     1     -21.715  11.106 -11.982  1.00  0.00    +0.015 A 
ATOM     14  C   UNL     1     -23.782  10.099 -11.248  1.00  0.00    +0.015 A 
ATOM     15  C   UNL     1     -21.351  11.326 -10.651  1.00  0.00    +0.001 A 
ATOM     16  C   UNL     1     -23.417  10.319  -9.917  1.00  0.00    +0.001 A 
ATOM     17  C   UNL     1     -22.202  10.935  -9.620  1.00  0.00    +0.000 A 
ENDBRANCH  11  12
ENDBRANCH   6  11
BRANCH   7  18
ATOM     18  N   UNL     1     -26.751  15.969 -17.590  1.00  0.00    -0.261 N 
ATOM     19  C   UNL     1     -27.622  15.629 -18.584  1.00  0.00    +0.413 C 
ATOM     20  O   UNL     1     -28.141  14.550 -18.818  1.00  0.00    -0.224 OA
ATOM     21  H   UNL     1     -26.446  16.928 -17.589  1.00  0.00    +0.176 HD
BRANCH  19  22
ATOM     22  O   UNL     1     -27.844  16.749 -19.333  1.00  0.00    -0.453 OA
ATOM     23  C   UNL     1     -26.921  16.919 -20.410  1.00  0.00    +0.284 C 
ENDBRANCH  19  22
ENDBRANCH   7  18
TORSDOF 4
ENDMDL
MODEL 9
REMARK VINA RESULT:    -6.368      7.323      9.335
REMARK INTER + INTRA:          -8.620
REMARK INTER:                  -7.920
REMARK INTRA:                  -0.700
REMARK UNBOUND:                -0.763
REMARK SMILES COC(=O)Nc1nc2ccc(Sc3ccccc3)cc2[nH]1
REMARK SMILES IDX 21 1 7 2 20 3 8 4 19 5 11 6 6 7 9 8 10 9 12 11 13 12 14 13
REMARK SMILES IDX 18 14 15 15 17 16 16 17 5 18 3 19 4 20 2 22 1 23
REMARK H PARENT 21 10 5 21
ROOT
ATOM      1  N   UNL     1     -24.843   5.025 -14.230  1.00  0.00    -0.324 N 
ATOM      2  N   UNL     1     -23.608   3.690 -12.980  1.00  0.00    -0.213 NA
ATOM      3  C   UNL     1     -23.828   5.814 -13.754  1.00  0.00    +0.068 A 
ATOM      4  C   UNL     1     -23.071   4.951 -12.972  1.00  0.00    +0.091 A 
ATOM      5  C   UNL     1     -23.517   7.164 -13.931  1.00  0.00    +0.043 A 
ATOM      6  C   UNL     1     -22.367   7.642 -13.281  1.00  0.00    +0.014 A 
ATOM      7  C   UNL     1     -24.673   3.751 -13.742  1.00  0.00    +0.210 A 
ATOM      8  C   UNL     1     -21.935   5.440 -12.316  1.00  0.00    +0.032 A 
ATOM      9  C   UNL     1     -21.595   6.792 -12.477  1.00  0.00    +0.018 A 
ATOM     10  H   UNL     1     -25.586   5.328 -14.839  1.00  0.00    +0.170 HD
ENDROOT
BRANCH   6  11
ATOM     11  S   UNL     1     -21.880   9.355 -13.440  1.00  0.00    -0.090 SA
BRANCH  11  12
ATOM     12  C   UNL     1     -22.257   9.997 -11.818  1.00  0.00    +0.012 A 
ATOM     13  C   UNL     1     -23.438   9.651 -11.152  1.00  0.00    +0.015 A 
ATOM     14  C   UNL     1     -21.365  10.886 -11.209  1.00  0.00    +0.015 A 
ATOM     15  C   UNL     1     -23.713  10.173  -9.886  1.00  0.00    +0.001 A 
ATOM     16  C   UNL     1     -21.640  11.407  -9.943  1.00  0.00    +0.001 A 
ATOM     17  C   UNL     1     -22.813  11.048  -9.281  1.00  0.00    +0.000 A 
ENDBRANCH  11  12
ENDBRANCH   6  11
BRANCH   7  18
ATOM     18  N   UNL     1     -25.555   2.759 -14.069  1.00  0.00    -0.261 N 
ATOM     19  C   UNL     1     -26.844   3.000 -14.444  1.00  0.00    +0.413 C 
ATOM     20  O   UNL     1     -27.428   4.066 -14.554  1.00  0.00    -0.224 OA
ATOM     21  H   UNL     1     -25.284   1.790 -14.045  1.00  0.00    +0.176 HD
BRANCH  19  22
ATOM     22  O   UNL     1     -27.429   1.793 -14.695  1.00  0.00    -0.453 OA
ATOM     23  C   UNL     1     -28.747   1.664 -14.157  1.00  0.00    +0.284 C 
ENDBRANCH  19  22
ENDBRANCH   7  18
TORSDOF 4
ENDMDL
