MODEL 1
REMARK VINA RESULT:    -8.056      0.000      0.000
REMARK INTER + INTRA:         -10.531
REMARK INTER:                  -9.939
REMARK INTRA:                  -0.592
REMARK UNBOUND:                -0.592
REMARK SMILES COC(=O)Nc1nc2ccc(Sc3ccccc3)cc2[nH]1
REMARK SMILES IDX 21 1 7 2 20 3 8 4 19 5 11 6 6 7 9 8 10 9 12 11 13 12 14 13
REMARK SMILES IDX 18 14 15 15 17 16 16 17 5 18 3 19 4 20 2 22 1 23
REMARK H PARENT 21 10 5 21
ROOT
ATOM      1  N   UNL     1     -38.893  10.482  17.728  1.00  0.00    -0.324 N 
ATOM      2  N   UNL     1     -40.178   8.908  18.588  1.00  0.00    -0.213 NA
ATOM      3  C   UNL     1     -39.345   9.759  16.655  1.00  0.00    +0.068 A 
ATOM      4  C   UNL     1     -40.146   8.778  17.224  1.00  0.00    +0.091 A 
ATOM      5  C   UNL     1     -39.128   9.873  15.279  1.00  0.00    +0.043 A 
ATOM      6  C   UNL     1     -39.777   8.938  14.455  1.00  0.00    +0.014 A 
ATOM      7  C   UNL     1     -39.420   9.939  18.875  1.00  0.00    +0.210 A 
ATOM      8  C   UNL     1     -40.776   7.842  16.395  1.00  0.00    +0.032 A 
ATOM      9  C   UNL     1     -40.580   7.931  15.009  1.00  0.00    +0.018 A 
ATOM     10  H   UNL     1     -38.281  11.281  17.682  1.00  0.00    +0.170 HD
ENDROOT
BRANCH   6  11
ATOM     11  S   UNL     1     -39.565   8.993  12.680  1.00  0.00    -0.090 SA
BRANCH  11  12
ATOM     12  C   UNL     1     -39.277   7.275  12.290  1.00  0.00    +0.012 A 
ATOM     13  C   UNL     1     -38.078   6.640  12.632  1.00  0.00    +0.015 A 
ATOM     14  C   UNL     1     -40.261   6.554  11.606  1.00  0.00    +0.015 A 
ATOM     15  C   UNL     1     -37.874   5.296  12.309  1.00  0.00    +0.001 A 
ATOM     16  C   UNL     1     -40.057   5.210  11.284  1.00  0.00    +0.001 A 
ATOM     17  C   UNL     1     -38.864   4.582  11.638  1.00  0.00    +0.000 A 
ENDBRANCH  11  12
ENDBRANCH   6  11
BRANCH   7  18
ATOM     18  N   UNL     1     -39.126  10.476  20.097  1.00  0.00    -0.261 N 
ATOM     19  C   UNL     1     -38.382   9.827  21.039  1.00  0.00    +0.413 C 
ATOM     20  O   UNL     1     -37.868   8.721  20.987  1.00  0.00    -0.224 OA
ATOM     21  H   UNL     1     -39.455  11.391  20.359  1.00  0.00    +0.176 HD
BRANCH  19  22
ATOM     22  O   UNL     1     -38.288  10.649  22.124  1.00  0.00    -0.453 OA
ATOM     23  C   UNL     1     -39.144  11.792  22.061  1.00  0.00    +0.284 C 
ENDBRANCH  19  22
ENDBRANCH   7  18
TORSDOF 4
ENDMDL
MODEL 2
REMARK VINA RESULT:    -8.021      6.869      8.355
REMARK INTER + INTRA:         -10.488
REMARK INTER:                  -9.683
REMARK INTRA:                  -0.805
REMARK UNBOUND:                -0.592
REMARK SMILES COC(=O)Nc1nc2ccc(Sc3ccccc3)cc2[nH]1
REMARK SMILES IDX 21 1 7 2 20 3 8 4 19 5 11 6 6 7 9 8 10 9 12 11 13 12 14 13
REMARK SMILES IDX 18 14 15 15 17 16 16 17 5 18 3 19 4 20 2 22 1 23
REMARK H PARENT 21 10 5 21
ROOT
ATOM      1  N   UNL     1     -39.808  12.915  10.319  1.00  0.00    -0.324 N 
ATOM      2  N   UNL     1     -41.747  11.866  10.217  1.00  0.00    -0.213 NA
ATOM      3  C   UNL     1     -39.695  11.863  11.191  1.00  0.00    +0.068 A 
ATOM      4  C   UNL     1     -40.926  11.225  11.108  1.00  0.00    +0.091 A 
ATOM      5  C   UNL     1     -38.658  11.429  12.020  1.00  0.00    +0.043 A 
ATOM      6  C   UNL     1     -38.899  10.278  12.790  1.00  0.00    +0.014 A 
ATOM      7  C   UNL     1     -41.059  12.880   9.751  1.00  0.00    +0.210 A 
ATOM      8  C   UNL     1     -41.161  10.087  11.890  1.00  0.00    +0.032 A 
ATOM      9  C   UNL     1     -40.138   9.625  12.730  1.00  0.00    +0.018 A 
ATOM     10  H   UNL     1     -39.092  13.596  10.125  1.00  0.00    +0.170 HD
ENDROOT
BRANCH   6  11
ATOM     11  S   UNL     1     -37.638   9.639  13.886  1.00  0.00    -0.090 SA
BRANCH  11  12
ATOM     12  C   UNL     1     -37.237   8.081  13.114  1.00  0.00    +0.012 A 
ATOM     13  C   UNL     1     -36.472   8.021  11.943  1.00  0.00    +0.015 A 
ATOM     14  C   UNL     1     -37.718   6.894  13.677  1.00  0.00    +0.015 A 
ATOM     15  C   UNL     1     -36.178   6.789  11.355  1.00  0.00    +0.001 A 
ATOM     16  C   UNL     1     -37.423   5.662  13.088  1.00  0.00    +0.001 A 
ATOM     17  C   UNL     1     -36.651   5.611  11.928  1.00  0.00    +0.000 A 
ENDBRANCH  11  12
ENDBRANCH   6  11
BRANCH   7  18
ATOM     18  N   UNL     1     -41.433  13.825   8.837  1.00  0.00    -0.261 N 
ATOM     19  C   UNL     1     -40.670  14.161   7.757  1.00  0.00    +0.413 C 
ATOM     20  O   UNL     1     -39.583  13.724   7.415  1.00  0.00    -0.224 OA
ATOM     21  H   UNL     1     -42.304  14.322   8.924  1.00  0.00    +0.176 HD
BRANCH  19  22
ATOM     22  O   UNL     1     -41.343  15.126   7.065  1.00  0.00    -0.453 OA
ATOM     23  C   UNL     1     -41.121  16.451   7.552  1.00  0.00    +0.284 C 
ENDBRANCH  19  22
ENDBRANCH   7  18
TORSDOF 4
ENDMDL
MODEL 3
REMARK VINA RESULT:    -8.016      8.969     10.407
REMARK INTER + INTRA:         -10.483
REMARK INTER:                  -9.889
REMARK INTRA:                  -0.594
REMARK UNBOUND:                -0.592
REMARK SMILES COC(=O)Nc1nc2ccc(Sc3ccccc3)cc2[nH]1
REMARK SMILES IDX 21 1 7 2 20 3 8 4 19 5 11 6 6 7 9 8 10 9 12 11 13 12 14 13
REMARK SMILES IDX 18 14 15 15 17 16 16 17 5 18 3 19 4 20 2 22 1 23
REMARK H PARENT 21 10 5 21
ROOT
ATOM      1  N   UNL     1     -39.683  14.764   7.745  1.00  0.00    -0.324 N 
ATOM      2  N   UNL     1     -41.859  14.421   7.614  1.00  0.00    -0.213 NA
ATOM      3  C   UNL     1     -39.890  13.537   8.320  1.00  0.00    +0.068 A 
ATOM      4  C   UNL     1     -41.263  13.350   8.226  1.00  0.00    +0.091 A 
ATOM      5  C   UNL     1     -39.024  12.605   8.898  1.00  0.00    +0.043 A 
ATOM      6  C   UNL     1     -39.602  11.423   9.391  1.00  0.00    +0.014 A 
ATOM      7  C   UNL     1     -40.894  15.263   7.330  1.00  0.00    +0.210 A 
ATOM      8  C   UNL     1     -41.830  12.173   8.733  1.00  0.00    +0.032 A 
ATOM      9  C   UNL     1     -40.986  11.217   9.317  1.00  0.00    +0.018 A 
ATOM     10  H   UNL     1     -38.791  15.220   7.640  1.00  0.00    +0.170 HD
ENDROOT
BRANCH   6  11
ATOM     11  S   UNL     1     -38.583  10.164  10.152  1.00  0.00    -0.090 SA
BRANCH  11  12
ATOM     12  C   UNL     1     -39.200   8.677   9.382  1.00  0.00    +0.012 A 
ATOM     13  C   UNL     1     -39.072   8.460   8.006  1.00  0.00    +0.015 A 
ATOM     14  C   UNL     1     -39.849   7.718  10.167  1.00  0.00    +0.015 A 
ATOM     15  C   UNL     1     -39.570   7.290   7.427  1.00  0.00    +0.001 A 
ATOM     16  C   UNL     1     -40.347   6.549   9.587  1.00  0.00    +0.001 A 
ATOM     17  C   UNL     1     -40.205   6.335   8.217  1.00  0.00    +0.000 A 
ENDBRANCH  11  12
ENDBRANCH   6  11
BRANCH   7  18
ATOM     18  N   UNL     1     -40.970  16.482   6.717  1.00  0.00    -0.261 N 
ATOM     19  C   UNL     1     -41.284  17.633   7.381  1.00  0.00    +0.413 C 
ATOM     20  O   UNL     1     -41.542  17.795   8.563  1.00  0.00    -0.224 OA
ATOM     21  H   UNL     1     -40.795  16.584   5.731  1.00  0.00    +0.176 HD
BRANCH  19  22
ATOM     22  O   UNL     1     -41.268  18.648   6.469  1.00  0.00    -0.453 OA
ATOM     23  C   UNL     1     -42.191  19.700   6.757  1.00  0.00    +0.284 C 
ENDBRANCH  19  22
ENDBRANCH   7  18
TORSDOF 4
ENDMDL
MODEL 4
REMARK VINA RESULT:    -7.983      7.467      8.732
REMARK INTER + INTRA:         -10.441
REMARK INTER:                  -9.652
REMARK INTRA:                  -0.790
REMARK UNBOUND:                -0.592
REMARK SMILES COC(=O)Nc1nc2ccc(Sc3ccccc3)cc2[nH]1
REMARK SMILES IDX 21 1 7 2 20 3 8 4 19 5 11 6 6 7 9 8 10 9 12 11 13 12 14 13
REMARK SMILES IDX 18 14 15 15 17 16 16 17 5 18 3 19 4 20 2 22 1 23
REMARK H PARENT 21 10 5 21
ROOT
ATOM      1  N   UNL     1     -40.946  11.931   8.628  1.00  0.00    -0.324 N 
ATOM      2  N   UNL     1     -39.945  12.962  10.303  1.00  0.00    -0.213 NA
ATOM      3  C   UNL     1     -39.994  11.052   9.075  1.00  0.00    +0.068 A 
ATOM      4  C   UNL     1     -39.381  11.727  10.123  1.00  0.00    +0.091 A 
ATOM      5  C   UNL     1     -39.625   9.768   8.667  1.00  0.00    +0.043 A 
ATOM      6  C   UNL     1     -38.585   9.149   9.379  1.00  0.00    +0.014 A 
ATOM      7  C   UNL     1     -40.886  13.070   9.395  1.00  0.00    +0.210 A 
ATOM      8  C   UNL     1     -38.335  11.106  10.818  1.00  0.00    +0.032 A 
ATOM      9  C   UNL     1     -37.944   9.815  10.433  1.00  0.00    +0.018 A 
ATOM     10  H   UNL     1     -41.585  11.767   7.867  1.00  0.00    +0.170 HD
ENDROOT
BRANCH   6  11
ATOM     11  S   UNL     1     -38.034   7.506   8.936  1.00  0.00    -0.090 SA
BRANCH  11  12
ATOM     12  C   UNL     1     -38.054   6.674  10.515  1.00  0.00    +0.012 A 
ATOM     13  C   UNL     1     -36.870   6.368  11.194  1.00  0.00    +0.015 A 
ATOM     14  C   UNL     1     -39.280   6.296  11.073  1.00  0.00    +0.015 A 
ATOM     15  C   UNL     1     -36.913   5.709  12.426  1.00  0.00    +0.001 A 
ATOM     16  C   UNL     1     -39.322   5.637  12.305  1.00  0.00    +0.001 A 
ATOM     17  C   UNL     1     -38.138   5.347  12.981  1.00  0.00    +0.000 A 
ENDBRANCH  11  12
ENDBRANCH   6  11
BRANCH   7  18
ATOM     18  N   UNL     1     -41.737  14.113   9.158  1.00  0.00    -0.261 N 
ATOM     19  C   UNL     1     -41.702  14.859   8.017  1.00  0.00    +0.413 C 
ATOM     20  O   UNL     1     -40.963  14.757   7.051  1.00  0.00    -0.224 OA
ATOM     21  H   UNL     1     -42.437  14.380   9.830  1.00  0.00    +0.176 HD
BRANCH  19  22
ATOM     22  O   UNL     1     -42.682  15.804   8.116  1.00  0.00    -0.453 OA
ATOM     23  C   UNL     1     -42.929  16.244   9.453  1.00  0.00    +0.284 C 
ENDBRANCH  19  22
ENDBRANCH   7  18
TORSDOF 4
ENDMDL
MODEL 5
REMARK VINA RESULT:    -7.971      2.511      3.344
REMARK INTER + INTRA:         -10.426
REMARK INTER:                  -9.836
REMARK INTRA:                  -0.591
REMARK UNBOUND:                -0.592
REMARK SMILES COC(=O)Nc1nc2ccc(Sc3ccccc3)cc2[nH]1
REMARK SMILES IDX 21 1 7 2 20 3 8 4 19 5 11 6 6 7 9 8 10 9 12 11 13 12 14 13
REMARK SMILES IDX 18 14 15 15 17 16 16 17 5 18 3 19 4 20 2 22 1 23
REMARK H PARENT 21 10 5 21
ROOT
ATOM      1  N   UNL     1     -38.165   9.412  15.361  1.00  0.00    -0.324 N 
ATOM      2  N   UNL     1     -38.876   7.612  16.421  1.00  0.00    -0.213 NA
ATOM      3  C   UNL     1     -37.886   8.364  14.521  1.00  0.00    +0.068 A 
ATOM      4  C   UNL     1     -38.341   7.249  15.213  1.00  0.00    +0.091 A 
ATOM      5  C   UNL     1     -37.293   8.297  13.258  1.00  0.00    +0.043 A 
ATOM      6  C   UNL     1     -37.175   7.022  12.679  1.00  0.00    +0.014 A 
ATOM      7  C   UNL     1     -38.763   8.916  16.495  1.00  0.00    +0.210 A 
ATOM      8  C   UNL     1     -38.205   5.982  14.633  1.00  0.00    +0.032 A 
ATOM      9  C   UNL     1     -37.616   5.882  13.364  1.00  0.00    +0.018 A 
ATOM     10  H   UNL     1     -37.968  10.382  15.175  1.00  0.00    +0.170 HD
ENDROOT
BRANCH   6  11
ATOM     11  S   UNL     1     -36.429   6.824  11.065  1.00  0.00    -0.090 SA
BRANCH  11  12
ATOM     12  C   UNL     1     -37.786   7.236   9.981  1.00  0.00    +0.012 A 
ATOM     13  C   UNL     1     -38.932   6.436   9.909  1.00  0.00    +0.015 A 
ATOM     14  C   UNL     1     -37.691   8.368   9.166  1.00  0.00    +0.015 A 
ATOM     15  C   UNL     1     -39.977   6.776   9.047  1.00  0.00    +0.001 A 
ATOM     16  C   UNL     1     -38.736   8.708   8.303  1.00  0.00    +0.001 A 
ATOM     17  C   UNL     1     -39.880   7.913   8.247  1.00  0.00    +0.000 A 
ENDBRANCH  11  12
ENDBRANCH   6  11
BRANCH   7  18
ATOM     18  N   UNL     1     -39.147   9.757  17.502  1.00  0.00    -0.261 N 
ATOM     19  C   UNL     1     -38.425   9.928  18.647  1.00  0.00    +0.413 C 
ATOM     20  O   UNL     1     -37.374   9.406  18.981  1.00  0.00    -0.224 OA
ATOM     21  H   UNL     1     -39.995  10.295  17.439  1.00  0.00    +0.176 HD
BRANCH  19  22
ATOM     22  O   UNL     1     -39.095  10.830  19.422  1.00  0.00    -0.453 OA
ATOM     23  C   UNL     1     -39.218  10.440  20.791  1.00  0.00    +0.284 C 
ENDBRANCH  19  22
ENDBRANCH   7  18
TORSDOF 4
ENDMDL
MODEL 6
REMARK VINA RESULT:    -7.798      6.767      8.264
REMARK INTER + INTRA:         -10.214
REMARK INTER:                  -9.494
REMARK INTRA:                  -0.720
REMARK UNBOUND:                -0.592
REMARK SMILES COC(=O)Nc1nc2ccc(Sc3ccccc3)cc2[nH]1
REMARK SMILES IDX 21 1 7 2 20 3 8 4 19 5 11 6 6 7 9 8 10 9 12 11 13 12 14 13
REMARK SMILES IDX 18 14 15 15 17 16 16 17 5 18 3 19 4 20 2 22 1 23
REMARK H PARENT 21 10 5 21
ROOT
ATOM      1  N   UNL     1     -39.619  12.744  10.372  1.00  0.00    -0.324 N 
ATOM      2  N   UNL     1     -41.563  11.700  10.369  1.00  0.00    -0.213 NA
ATOM      3  C   UNL     1     -39.476  11.714  11.264  1.00  0.00    +0.068 A 
ATOM      4  C   UNL     1     -40.711  11.078  11.243  1.00  0.00    +0.091 A 
ATOM      5  C   UNL     1     -38.409  11.296  12.064  1.00  0.00    +0.043 A 
ATOM      6  C   UNL     1     -38.624  10.166  12.870  1.00  0.00    +0.014 A 
ATOM      7  C   UNL     1     -40.891  12.700   9.852  1.00  0.00    +0.210 A 
ATOM      8  C   UNL     1     -40.919   9.960  12.061  1.00  0.00    +0.032 A 
ATOM      9  C   UNL     1     -39.866   9.515  12.874  1.00  0.00    +0.018 A 
ATOM     10  H   UNL     1     -38.909  13.418  10.134  1.00  0.00    +0.170 HD
ENDROOT
BRANCH   6  11
ATOM     11  S   UNL     1     -37.324   9.549  13.933  1.00  0.00    -0.090 SA
BRANCH  11  12
ATOM     12  C   UNL     1     -37.751   7.821  14.070  1.00  0.00    +0.012 A 
ATOM     13  C   UNL     1     -38.303   7.297  15.244  1.00  0.00    +0.015 A 
ATOM     14  C   UNL     1     -37.504   6.968  12.990  1.00  0.00    +0.015 A 
ATOM     15  C   UNL     1     -38.621   5.939  15.328  1.00  0.00    +0.001 A 
ATOM     16  C   UNL     1     -37.822   5.610  13.075  1.00  0.00    +0.001 A 
ATOM     17  C   UNL     1     -38.383   5.097  14.244  1.00  0.00    +0.000 A 
ENDBRANCH  11  12
ENDBRANCH   6  11
BRANCH   7  18
ATOM     18  N   UNL     1     -41.297  13.623   8.929  1.00  0.00    -0.261 N 
ATOM     19  C   UNL     1     -40.567  13.941   7.821  1.00  0.00    +0.413 C 
ATOM     20  O   UNL     1     -39.488  13.502   7.457  1.00  0.00    -0.224 OA
ATOM     21  H   UNL     1     -42.168  14.117   9.032  1.00  0.00    +0.176 HD
BRANCH  19  22
ATOM     22  O   UNL     1     -41.266  14.887   7.129  1.00  0.00    -0.453 OA
ATOM     23  C   UNL     1     -41.114  16.211   7.644  1.00  0.00    +0.284 C 
ENDBRANCH  19  22
ENDBRANCH   7  18
TORSDOF 4
ENDMDL
MODEL 7
REMARK VINA RESULT:    -7.692      6.049      8.467
REMARK INTER + INTRA:         -10.082
REMARK INTER:                  -9.279
REMARK INTRA:                  -0.803
REMARK UNBOUND:                -0.592
REMARK SMILES COC(=O)Nc1nc2ccc(Sc3ccccc3)cc2[nH]1
REMARK SMILES IDX 21 1 7 2 20 3 8 4 19 5 11 6 6 7 9 8 10 9 12 11 13 12 14 13
REMARK SMILES IDX 18 14 15 15 17 16 16 17 5 18 3 19 4 20 2 22 1 23
REMARK H PARENT 21 10 5 21
ROOT
ATOM      1  N   UNL     1     -38.478  10.209  10.100  1.00  0.00    -0.324 N 
ATOM      2  N   UNL     1     -39.889   9.077   8.836  1.00  0.00    -0.213 NA
ATOM      3  C   UNL     1     -38.683   9.025  10.759  1.00  0.00    +0.068 A 
ATOM      4  C   UNL     1     -39.573   8.337   9.945  1.00  0.00    +0.091 A 
ATOM      5  C   UNL     1     -38.185   8.513  11.960  1.00  0.00    +0.043 A 
ATOM      6  C   UNL     1     -38.618   7.229  12.330  1.00  0.00    +0.014 A 
ATOM      7  C   UNL     1     -39.221  10.200   8.944  1.00  0.00    +0.210 A 
ATOM      8  C   UNL     1     -40.009   7.063  10.330  1.00  0.00    +0.032 A 
ATOM      9  C   UNL     1     -39.525   6.520  11.530  1.00  0.00    +0.018 A 
ATOM     10  H   UNL     1     -37.880  10.958  10.409  1.00  0.00    +0.170 HD
ENDROOT
BRANCH   6  11
ATOM     11  S   UNL     1     -38.042   6.480  13.850  1.00  0.00    -0.090 SA
BRANCH  11  12
ATOM     12  C   UNL     1     -38.964   7.390  15.079  1.00  0.00    +0.012 A 
ATOM     13  C   UNL     1     -40.338   7.191  15.256  1.00  0.00    +0.015 A 
ATOM     14  C   UNL     1     -38.304   8.340  15.864  1.00  0.00    +0.015 A 
ATOM     15  C   UNL     1     -41.037   7.921  16.221  1.00  0.00    +0.001 A 
ATOM     16  C   UNL     1     -39.004   9.070  16.828  1.00  0.00    +0.001 A 
ATOM     17  C   UNL     1     -40.370   8.857  17.007  1.00  0.00    +0.000 A 
ENDBRANCH  11  12
ENDBRANCH   6  11
BRANCH   7  18
ATOM     18  N   UNL     1     -39.196  11.271   8.093  1.00  0.00    -0.261 N 
ATOM     19  C   UNL     1     -39.457  12.548   8.494  1.00  0.00    +0.413 C 
ATOM     20  O   UNL     1     -39.745  12.964   9.605  1.00  0.00    -0.224 OA
ATOM     21  H   UNL     1     -38.981  11.158   7.117  1.00  0.00    +0.176 HD
BRANCH  19  22
ATOM     22  O   UNL     1     -39.343  13.352   7.398  1.00  0.00    -0.453 OA
ATOM     23  C   UNL     1     -39.792  14.692   7.612  1.00  0.00    +0.284 C 
ENDBRANCH  19  22
ENDBRANCH   7  18
TORSDOF 4
ENDMDL
MODEL 8
REMARK VINA RESULT:    -7.645      3.079      3.792
REMARK INTER + INTRA:         -10.024
REMARK INTER:                  -9.217
REMARK INTRA:                  -0.807
REMARK UNBOUND:                -0.592
REMARK SMILES COC(=O)Nc1nc2ccc(Sc3ccccc3)cc2[nH]1
REMARK SMILES IDX 21 1 7 2 20 3 8 4 19 5 11 6 6 7 9 8 10 9 12 11 13 12 14 13
REMARK SMILES IDX 18 14 15 15 17 16 16 17 5 18 3 19 4 20 2 22 1 23
REMARK H PARENT 21 10 5 21
ROOT
ATOM      1  N   UNL     1     -37.724   9.863  15.077  1.00  0.00    -0.324 N 
ATOM      2  N   UNL     1     -38.578   8.529  16.613  1.00  0.00    -0.213 NA
ATOM      3  C   UNL     1     -37.669   8.606  14.534  1.00  0.00    +0.068 A 
ATOM      4  C   UNL     1     -38.209   7.790  15.519  1.00  0.00    +0.091 A 
ATOM      5  C   UNL     1     -37.207   8.126  13.305  1.00  0.00    +0.043 A 
ATOM      6  C   UNL     1     -37.317   6.743  13.082  1.00  0.00    +0.014 A 
ATOM      7  C   UNL     1     -38.280   9.774  16.330  1.00  0.00    +0.210 A 
ATOM      8  C   UNL     1     -38.302   6.411  15.292  1.00  0.00    +0.032 A 
ATOM      9  C   UNL     1     -37.848   5.899  14.067  1.00  0.00    +0.018 A 
ATOM     10  H   UNL     1     -37.412  10.710  14.630  1.00  0.00    +0.170 HD
ENDROOT
BRANCH   6  11
ATOM     11  S   UNL     1     -36.754   6.025  11.544  1.00  0.00    -0.090 SA
BRANCH  11  12
ATOM     12  C   UNL     1     -38.001   6.587  10.397  1.00  0.00    +0.012 A 
ATOM     13  C   UNL     1     -37.731   7.589   9.458  1.00  0.00    +0.015 A 
ATOM     14  C   UNL     1     -39.284   6.033  10.456  1.00  0.00    +0.015 A 
ATOM     15  C   UNL     1     -38.728   8.016   8.577  1.00  0.00    +0.001 A 
ATOM     16  C   UNL     1     -40.280   6.461   9.574  1.00  0.00    +0.001 A 
ATOM     17  C   UNL     1     -40.000   7.451   8.633  1.00  0.00    +0.000 A 
ENDBRANCH  11  12
ENDBRANCH   6  11
BRANCH   7  18
ATOM     18  N   UNL     1     -38.453  10.894  17.095  1.00  0.00    -0.261 N 
ATOM     19  C   UNL     1     -39.062  12.025  16.635  1.00  0.00    +0.413 C 
ATOM     20  O   UNL     1     -39.537  12.251  15.534  1.00  0.00    -0.224 OA
ATOM     21  H   UNL     1     -38.131  10.931  18.048  1.00  0.00    +0.176 HD
BRANCH  19  22
ATOM     22  O   UNL     1     -39.062  12.933  17.654  1.00  0.00    -0.453 OA
ATOM     23  C   UNL     1     -39.056  14.294  17.218  1.00  0.00    +0.284 C 
ENDBRANCH  19  22
ENDBRANCH   7  18
TORSDOF 4
ENDMDL
MODEL 9
REMARK VINA RESULT:    -7.631      6.826      8.689
REMARK INTER + INTRA:         -10.007
REMARK INTER:                  -9.262
REMARK INTRA:                  -0.745
REMARK UNBOUND:                -0.592
REMARK SMILES COC(=O)Nc1nc2ccc(Sc3ccccc3)cc2[nH]1
REMARK SMILES IDX 21 1 7 2 20 3 8 4 19 5 11 6 6 7 9 8 10 9 12 11 13 12 14 13
REMARK SMILES IDX 18 14 15 15 17 16 16 17 5 18 3 19 4 20 2 22 1 23
REMARK H PARENT 21 10 5 21
ROOT
ATOM      1  N   UNL     1     -39.029  11.847   9.657  1.00  0.00    -0.324 N 
ATOM      2  N   UNL     1     -40.675  10.807   8.618  1.00  0.00    -0.213 NA
ATOM      3  C   UNL     1     -38.770  10.510   9.817  1.00  0.00    +0.068 A 
ATOM      4  C   UNL     1     -39.819   9.883   9.157  1.00  0.00    +0.091 A 
ATOM      5  C   UNL     1     -37.742   9.817  10.462  1.00  0.00    +0.043 A 
ATOM      6  C   UNL     1     -37.796   8.414  10.414  1.00  0.00    +0.014 A 
ATOM      7  C   UNL     1     -40.185  11.984   8.927  1.00  0.00    +0.210 A 
ATOM      8  C   UNL     1     -39.870   8.484   9.128  1.00  0.00    +0.032 A 
ATOM      9  C   UNL     1     -38.852   7.760   9.765  1.00  0.00    +0.018 A 
ATOM     10  H   UNL     1     -38.464  12.601  10.011  1.00  0.00    +0.170 HD
ENDROOT
BRANCH   6  11
ATOM     11  S   UNL     1     -36.531   7.430  11.210  1.00  0.00    -0.090 SA
BRANCH  11  12
ATOM     12  C   UNL     1     -37.309   7.018  12.763  1.00  0.00    +0.012 A 
ATOM     13  C   UNL     1     -37.586   7.997  13.723  1.00  0.00    +0.015 A 
ATOM     14  C   UNL     1     -37.626   5.683  13.036  1.00  0.00    +0.015 A 
ATOM     15  C   UNL     1     -38.189   7.647  14.934  1.00  0.00    +0.001 A 
ATOM     16  C   UNL     1     -38.229   5.334  14.248  1.00  0.00    +0.001 A 
ATOM     17  C   UNL     1     -38.512   6.317  15.194  1.00  0.00    +0.000 A 
ENDBRANCH  11  12
ENDBRANCH   6  11
BRANCH   7  18
ATOM     18  N   UNL     1     -40.672  13.224   8.621  1.00  0.00    -0.261 N 
ATOM     19  C   UNL     1     -40.050  14.077   7.756  1.00  0.00    +0.413 C 
ATOM     20  O   UNL     1     -39.014  13.920   7.129  1.00  0.00    -0.224 OA
ATOM     21  H   UNL     1     -41.525  13.567   9.030  1.00  0.00    +0.176 HD
BRANCH  19  22
ATOM     22  O   UNL     1     -40.805  15.212   7.687  1.00  0.00    -0.453 OA
ATOM     23  C   UNL     1     -41.909  15.229   8.595  1.00  0.00    +0.284 C 
ENDBRANCH  19  22
ENDBRANCH   7  18
TORSDOF 4
ENDMDL
