MODEL 1
REMARK VINA RESULT:    -8.488      0.000      0.000
REMARK INTER + INTRA:         -11.222
REMARK INTER:                 -10.473
REMARK INTRA:                  -0.749
REMARK UNBOUND:                -0.749
REMARK SMILES COC(=O)Nc1nc2ccc(Sc3ccccc3)cc2[nH]1
REMARK SMILES IDX 21 1 7 2 20 3 8 4 19 5 11 6 6 7 9 8 10 9 12 11 13 12 14 13
REMARK SMILES IDX 18 14 15 15 17 16 16 17 5 18 3 19 4 20 2 22 1 23
REMARK H PARENT 21 10 5 21
ROOT
ATOM      1  N   UNL     1     -27.697   8.426 -23.735  1.00  0.00    -0.324 N 
ATOM      2  N   UNL     1     -28.722   6.935 -22.472  1.00  0.00    -0.213 NA
ATOM      3  C   UNL     1     -28.390   9.157 -22.805  1.00  0.00    +0.068 A 
ATOM      4  C   UNL     1     -29.025   8.196 -22.028  1.00  0.00    +0.091 A 
ATOM      5  C   UNL     1     -28.515  10.530 -22.583  1.00  0.00    +0.043 A 
ATOM      6  C   UNL     1     -29.323  10.928 -21.504  1.00  0.00    +0.014 A 
ATOM      7  C   UNL     1     -27.922   7.091 -23.499  1.00  0.00    +0.210 A 
ATOM      8  C   UNL     1     -29.839   8.603 -20.964  1.00  0.00    +0.032 A 
ATOM      9  C   UNL     1     -29.982   9.976 -20.714  1.00  0.00    +0.018 A 
ATOM     10  H   UNL     1     -27.117   8.806 -24.466  1.00  0.00    +0.170 HD
ENDROOT
BRANCH   6  11
ATOM     11  S   UNL     1     -29.552  12.663 -21.134  1.00  0.00    -0.090 SA
BRANCH  11  12
ATOM     12  C   UNL     1     -31.327  12.776 -20.984  1.00  0.00    +0.012 A 
ATOM     13  C   UNL     1     -31.944  12.978 -19.744  1.00  0.00    +0.015 A 
ATOM     14  C   UNL     1     -32.121  12.633 -22.127  1.00  0.00    +0.015 A 
ATOM     15  C   UNL     1     -33.336  13.055 -19.653  1.00  0.00    +0.001 A 
ATOM     16  C   UNL     1     -33.513  12.710 -22.035  1.00  0.00    +0.001 A 
ATOM     17  C   UNL     1     -34.119  12.924 -20.798  1.00  0.00    +0.000 A 
ENDBRANCH  11  12
ENDBRANCH   6  11
BRANCH   7  18
ATOM     18  N   UNL     1     -27.341   6.139 -24.289  1.00  0.00    -0.261 N 
ATOM     19  C   UNL     1     -26.209   6.362 -25.017  1.00  0.00    +0.413 C 
ATOM     20  O   UNL     1     -25.537   7.377 -25.105  1.00  0.00    -0.224 OA
ATOM     21  H   UNL     1     -27.734   5.215 -24.369  1.00  0.00    +0.176 HD
BRANCH  19  22
ATOM     22  O   UNL     1     -25.914   5.206 -25.679  1.00  0.00    -0.453 OA
ATOM     23  C   UNL     1     -27.054   4.557 -26.248  1.00  0.00    +0.284 C 
ENDBRANCH  19  22
ENDBRANCH   7  18
TORSDOF 4
ENDMDL
MODEL 2
REMARK VINA RESULT:    -8.381      7.607      8.903
REMARK INTER + INTRA:         -11.090
REMARK INTER:                 -10.338
REMARK INTRA:                  -0.752
REMARK UNBOUND:                -0.749
REMARK SMILES COC(=O)Nc1nc2ccc(Sc3ccccc3)cc2[nH]1
REMARK SMILES IDX 21 1 7 2 20 3 8 4 19 5 11 6 6 7 9 8 10 9 12 11 13 12 14 13
REMARK SMILES IDX 18 14 15 15 17 16 16 17 5 18 3 19 4 20 2 22 1 23
REMARK H PARENT 21 10 5 21
ROOT
ATOM      1  N   UNL     1     -30.463  13.692 -28.525  1.00  0.00    -0.324 N 
ATOM      2  N   UNL     1     -29.301  12.498 -29.972  1.00  0.00    -0.213 NA
ATOM      3  C   UNL     1     -29.165  14.108 -28.376  1.00  0.00    +0.068 A 
ATOM      4  C   UNL     1     -28.460  13.340 -29.293  1.00  0.00    +0.091 A 
ATOM      5  C   UNL     1     -28.566  15.056 -27.543  1.00  0.00    +0.043 A 
ATOM      6  C   UNL     1     -27.177  15.227 -27.673  1.00  0.00    +0.014 A 
ATOM      7  C   UNL     1     -30.503  12.723 -29.498  1.00  0.00    +0.210 A 
ATOM      8  C   UNL     1     -27.074  13.509 -29.405  1.00  0.00    +0.032 A 
ATOM      9  C   UNL     1     -26.443  14.455 -28.584  1.00  0.00    +0.018 A 
ATOM     10  H   UNL     1     -31.255  14.042 -28.010  1.00  0.00    +0.170 HD
ENDROOT
BRANCH   6  11
ATOM     11  S   UNL     1     -26.310  16.414 -26.653  1.00  0.00    -0.090 SA
BRANCH  11  12
ATOM     12  C   UNL     1     -25.996  15.467 -25.173  1.00  0.00    +0.012 A 
ATOM     13  C   UNL     1     -24.909  14.591 -25.084  1.00  0.00    +0.015 A 
ATOM     14  C   UNL     1     -26.870  15.585 -24.087  1.00  0.00    +0.015 A 
ATOM     15  C   UNL     1     -24.689  13.856 -23.917  1.00  0.00    +0.001 A 
ATOM     16  C   UNL     1     -26.649  14.849 -22.920  1.00  0.00    +0.001 A 
ATOM     17  C   UNL     1     -25.557  13.987 -22.835  1.00  0.00    +0.000 A 
ENDBRANCH  11  12
ENDBRANCH   6  11
BRANCH   7  18
ATOM     18  N   UNL     1     -31.688  12.136 -29.846  1.00  0.00    -0.261 N 
ATOM     19  C   UNL     1     -32.893  12.766 -29.737  1.00  0.00    +0.413 C 
ATOM     20  O   UNL     1     -33.140  13.893 -29.337  1.00  0.00    -0.224 OA
ATOM     21  H   UNL     1     -31.720  11.196 -30.203  1.00  0.00    +0.176 HD
BRANCH  19  22
ATOM     22  O   UNL     1     -33.850  11.896 -30.170  1.00  0.00    -0.453 OA
ATOM     23  C   UNL     1     -34.637  11.330 -29.119  1.00  0.00    +0.284 C 
ENDBRANCH  19  22
ENDBRANCH   7  18
TORSDOF 4
ENDMDL
MODEL 3
REMARK VINA RESULT:    -8.368      2.890      3.665
REMARK INTER + INTRA:         -11.074
REMARK INTER:                 -10.589
REMARK INTRA:                  -0.485
REMARK UNBOUND:                -0.749
REMARK SMILES COC(=O)Nc1nc2ccc(Sc3ccccc3)cc2[nH]1
REMARK SMILES IDX 21 1 7 2 20 3 8 4 19 5 11 6 6 7 9 8 10 9 12 11 13 12 14 13
REMARK SMILES IDX 18 14 15 15 17 16 16 17 5 18 3 19 4 20 2 22 1 23
REMARK H PARENT 21 10 5 21
ROOT
ATOM      1  N   UNL     1     -27.216   9.107 -23.010  1.00  0.00    -0.324 N 
ATOM      2  N   UNL     1     -29.231   8.314 -22.588  1.00  0.00    -0.213 NA
ATOM      3  C   UNL     1     -27.815  10.049 -22.215  1.00  0.00    +0.068 A 
ATOM      4  C   UNL     1     -29.078   9.526 -21.968  1.00  0.00    +0.091 A 
ATOM      5  C   UNL     1     -27.377  11.275 -21.708  1.00  0.00    +0.043 A 
ATOM      6  C   UNL     1     -28.280  11.988 -20.901  1.00  0.00    +0.014 A 
ATOM      7  C   UNL     1     -28.102   8.076 -23.210  1.00  0.00    +0.210 A 
ATOM      8  C   UNL     1     -29.975  10.251 -21.174  1.00  0.00    +0.032 A 
ATOM      9  C   UNL     1     -29.564  11.485 -20.648  1.00  0.00    +0.018 A 
ATOM     10  H   UNL     1     -26.281   9.160 -23.382  1.00  0.00    +0.170 HD
ENDROOT
BRANCH   6  11
ATOM     11  S   UNL     1     -27.821  13.569 -20.203  1.00  0.00    -0.090 SA
BRANCH  11  12
ATOM     12  C   UNL     1     -27.838  14.625 -21.643  1.00  0.00    +0.012 A 
ATOM     13  C   UNL     1     -26.695  14.806 -22.429  1.00  0.00    +0.015 A 
ATOM     14  C   UNL     1     -29.013  15.306 -21.977  1.00  0.00    +0.015 A 
ATOM     15  C   UNL     1     -26.734  15.644 -23.547  1.00  0.00    +0.001 A 
ATOM     16  C   UNL     1     -29.051  16.144 -23.095  1.00  0.00    +0.001 A 
ATOM     17  C   UNL     1     -27.911  16.310 -23.880  1.00  0.00    +0.000 A 
ENDBRANCH  11  12
ENDBRANCH   6  11
BRANCH   7  18
ATOM     18  N   UNL     1     -27.752   6.996 -23.973  1.00  0.00    -0.261 N 
ATOM     19  C   UNL     1     -27.855   5.708 -23.534  1.00  0.00    +0.413 C 
ATOM     20  O   UNL     1     -28.248   5.290 -22.457  1.00  0.00    -0.224 OA
ATOM     21  H   UNL     1     -27.396   7.109 -24.907  1.00  0.00    +0.176 HD
BRANCH  19  22
ATOM     22  O   UNL     1     -27.425   4.897 -24.544  1.00  0.00    -0.453 OA
ATOM     23  C   UNL     1     -26.587   5.554 -25.497  1.00  0.00    +0.284 C 
ENDBRANCH  19  22
ENDBRANCH   7  18
TORSDOF 4
ENDMDL
MODEL 4
REMARK VINA RESULT:    -8.358      2.066      2.409
REMARK INTER + INTRA:         -11.062
REMARK INTER:                 -10.420
REMARK INTRA:                  -0.641
REMARK UNBOUND:                -0.749
REMARK SMILES COC(=O)Nc1nc2ccc(Sc3ccccc3)cc2[nH]1
REMARK SMILES IDX 21 1 7 2 20 3 8 4 19 5 11 6 6 7 9 8 10 9 12 11 13 12 14 13
REMARK SMILES IDX 18 14 15 15 17 16 16 17 5 18 3 19 4 20 2 22 1 23
REMARK H PARENT 21 10 5 21
ROOT
ATOM      1  N   UNL     1     -27.377   8.403 -23.885  1.00  0.00    -0.324 N 
ATOM      2  N   UNL     1     -28.775   7.715 -22.322  1.00  0.00    -0.213 NA
ATOM      3  C   UNL     1     -27.588   9.495 -23.084  1.00  0.00    +0.068 A 
ATOM      4  C   UNL     1     -28.470   9.035 -22.114  1.00  0.00    +0.091 A 
ATOM      5  C   UNL     1     -27.102  10.805 -23.122  1.00  0.00    +0.043 A 
ATOM      6  C   UNL     1     -27.538  11.674 -22.107  1.00  0.00    +0.014 A 
ATOM      7  C   UNL     1     -28.109   7.350 -23.391  1.00  0.00    +0.210 A 
ATOM      8  C   UNL     1     -28.909   9.914 -21.115  1.00  0.00    +0.032 A 
ATOM      9  C   UNL     1     -28.436  11.234 -21.126  1.00  0.00    +0.018 A 
ATOM     10  H   UNL     1     -26.782   8.377 -24.697  1.00  0.00    +0.170 HD
ENDROOT
BRANCH   6  11
ATOM     11  S   UNL     1     -26.976  13.372 -22.065  1.00  0.00    -0.090 SA
BRANCH  11  12
ATOM     12  C   UNL     1     -28.348  14.192 -21.269  1.00  0.00    +0.012 A 
ATOM     13  C   UNL     1     -28.268  14.628 -19.942  1.00  0.00    +0.015 A 
ATOM     14  C   UNL     1     -29.538  14.379 -21.980  1.00  0.00    +0.015 A 
ATOM     15  C   UNL     1     -29.358  15.261 -19.341  1.00  0.00    +0.001 A 
ATOM     16  C   UNL     1     -30.629  15.012 -21.377  1.00  0.00    +0.001 A 
ATOM     17  C   UNL     1     -30.536  15.455 -20.059  1.00  0.00    +0.000 A 
ENDBRANCH  11  12
ENDBRANCH   6  11
BRANCH   7  18
ATOM     18  N   UNL     1     -28.076   6.131 -24.008  1.00  0.00    -0.261 N 
ATOM     19  C   UNL     1     -27.010   5.694 -24.739  1.00  0.00    +0.413 C 
ATOM     20  O   UNL     1     -25.954   6.257 -24.975  1.00  0.00    -0.224 OA
ATOM     21  H   UNL     1     -28.852   5.493 -23.948  1.00  0.00    +0.176 HD
BRANCH  19  22
ATOM     22  O   UNL     1     -27.317   4.448 -25.204  1.00  0.00    -0.453 OA
ATOM     23  C   UNL     1     -26.818   4.179 -26.516  1.00  0.00    +0.284 C 
ENDBRANCH  19  22
ENDBRANCH   7  18
TORSDOF 4
ENDMDL
MODEL 5
REMARK VINA RESULT:    -8.131      1.523      2.493
REMARK INTER + INTRA:         -10.782
REMARK INTER:                 -10.024
REMARK INTRA:                  -0.758
REMARK UNBOUND:                -0.749
REMARK SMILES COC(=O)Nc1nc2ccc(Sc3ccccc3)cc2[nH]1
REMARK SMILES IDX 21 1 7 2 20 3 8 4 19 5 11 6 6 7 9 8 10 9 12 11 13 12 14 13
REMARK SMILES IDX 18 14 15 15 17 16 16 17 5 18 3 19 4 20 2 22 1 23
REMARK H PARENT 21 10 5 21
ROOT
ATOM      1  N   UNL     1     -28.422   8.928 -22.324  1.00  0.00    -0.324 N 
ATOM      2  N   UNL     1     -27.508   9.902 -24.080  1.00  0.00    -0.213 NA
ATOM      3  C   UNL     1     -28.669  10.267 -22.163  1.00  0.00    +0.068 A 
ATOM      4  C   UNL     1     -28.082  10.853 -23.278  1.00  0.00    +0.091 A 
ATOM      5  C   UNL     1     -29.331  10.995 -21.171  1.00  0.00    +0.043 A 
ATOM      6  C   UNL     1     -29.399  12.388 -21.344  1.00  0.00    +0.014 A 
ATOM      7  C   UNL     1     -27.722   8.749 -23.492  1.00  0.00    +0.210 A 
ATOM      8  C   UNL     1     -28.144  12.243 -23.433  1.00  0.00    +0.032 A 
ATOM      9  C   UNL     1     -28.804  13.001 -22.455  1.00  0.00    +0.018 A 
ATOM     10  H   UNL     1     -28.711   8.199 -21.692  1.00  0.00    +0.170 HD
ENDROOT
BRANCH   6  11
ATOM     11  S   UNL     1     -30.223  13.413 -20.131  1.00  0.00    -0.090 SA
BRANCH  11  12
ATOM     12  C   UNL     1     -31.942  13.152 -20.536  1.00  0.00    +0.012 A 
ATOM     13  C   UNL     1     -32.355  12.923 -21.853  1.00  0.00    +0.015 A 
ATOM     14  C   UNL     1     -32.900  13.203 -19.518  1.00  0.00    +0.015 A 
ATOM     15  C   UNL     1     -33.707  12.729 -22.144  1.00  0.00    +0.001 A 
ATOM     16  C   UNL     1     -34.252  13.009 -19.810  1.00  0.00    +0.001 A 
ATOM     17  C   UNL     1     -34.654  12.770 -21.123  1.00  0.00    +0.000 A 
ENDBRANCH  11  12
ENDBRANCH   6  11
BRANCH   7  18
ATOM     18  N   UNL     1     -27.347   7.497 -23.893  1.00  0.00    -0.261 N 
ATOM     19  C   UNL     1     -28.088   6.380 -23.639  1.00  0.00    +0.413 C 
ATOM     20  O   UNL     1     -29.151   6.278 -23.049  1.00  0.00    -0.224 OA
ATOM     21  H   UNL     1     -26.492   7.345 -24.402  1.00  0.00    +0.176 HD
BRANCH  19  22
ATOM     22  O   UNL     1     -27.423   5.317 -24.179  1.00  0.00    -0.453 OA
ATOM     23  C   UNL     1     -26.700   5.631 -25.371  1.00  0.00    +0.284 C 
ENDBRANCH  19  22
ENDBRANCH   7  18
TORSDOF 4
ENDMDL
MODEL 6
REMARK VINA RESULT:    -7.966      2.023      2.990
REMARK INTER + INTRA:         -10.577
REMARK INTER:                  -9.910
REMARK INTRA:                  -0.667
REMARK UNBOUND:                -0.749
REMARK SMILES COC(=O)Nc1nc2ccc(Sc3ccccc3)cc2[nH]1
REMARK SMILES IDX 21 1 7 2 20 3 8 4 19 5 11 6 6 7 9 8 10 9 12 11 13 12 14 13
REMARK SMILES IDX 18 14 15 15 17 16 16 17 5 18 3 19 4 20 2 22 1 23
REMARK H PARENT 21 10 5 21
ROOT
ATOM      1  N   UNL     1     -27.385   8.735 -23.138  1.00  0.00    -0.324 N 
ATOM      2  N   UNL     1     -25.853   9.195 -24.658  1.00  0.00    -0.213 NA
ATOM      3  C   UNL     1     -27.099  10.065 -22.971  1.00  0.00    +0.068 A 
ATOM      4  C   UNL     1     -26.134  10.325 -23.935  1.00  0.00    +0.091 A 
ATOM      5  C   UNL     1     -27.583  11.033 -22.087  1.00  0.00    +0.043 A 
ATOM      6  C   UNL     1     -27.055  12.328 -22.212  1.00  0.00    +0.014 A 
ATOM      7  C   UNL     1     -26.615   8.248 -24.166  1.00  0.00    +0.210 A 
ATOM      8  C   UNL     1     -25.604  11.617 -24.042  1.00  0.00    +0.032 A 
ATOM      9  C   UNL     1     -26.071  12.611 -23.170  1.00  0.00    +0.018 A 
ATOM     10  H   UNL     1     -28.052   8.205 -22.600  1.00  0.00    +0.170 HD
ENDROOT
BRANCH   6  11
ATOM     11  S   UNL     1     -27.605  13.641 -21.128  1.00  0.00    -0.090 SA
BRANCH  11  12
ATOM     12  C   UNL     1     -29.371  13.385 -21.108  1.00  0.00    +0.012 A 
ATOM     13  C   UNL     1     -30.165  13.684 -22.220  1.00  0.00    +0.015 A 
ATOM     14  C   UNL     1     -29.978  12.898 -19.945  1.00  0.00    +0.015 A 
ATOM     15  C   UNL     1     -31.546  13.481 -22.175  1.00  0.00    +0.001 A 
ATOM     16  C   UNL     1     -31.360  12.695 -19.902  1.00  0.00    +0.001 A 
ATOM     17  C   UNL     1     -32.142  12.985 -21.018  1.00  0.00    +0.000 A 
ENDBRANCH  11  12
ENDBRANCH   6  11
BRANCH   7  18
ATOM     18  N   UNL     1     -26.707   6.937 -24.543  1.00  0.00    -0.261 N 
ATOM     19  C   UNL     1     -27.614   6.069 -24.008  1.00  0.00    +0.413 C 
ATOM     20  O   UNL     1     -28.459   6.269 -23.151  1.00  0.00    -0.224 OA
ATOM     21  H   UNL     1     -26.098   6.550 -25.244  1.00  0.00    +0.176 HD
BRANCH  19  22
ATOM     22  O   UNL     1     -27.427   4.859 -24.611  1.00  0.00    -0.453 OA
ATOM     23  C   UNL     1     -26.680   4.927 -25.828  1.00  0.00    +0.284 C 
ENDBRANCH  19  22
ENDBRANCH   7  18
TORSDOF 4
ENDMDL
MODEL 7
REMARK VINA RESULT:    -7.777      2.866      4.440
REMARK INTER + INTRA:         -10.345
REMARK INTER:                  -9.741
REMARK INTRA:                  -0.604
REMARK UNBOUND:                -0.749
REMARK SMILES COC(=O)Nc1nc2ccc(Sc3ccccc3)cc2[nH]1
REMARK SMILES IDX 21 1 7 2 20 3 8 4 19 5 11 6 6 7 9 8 10 9 12 11 13 12 14 13
REMARK SMILES IDX 18 14 15 15 17 16 16 17 5 18 3 19 4 20 2 22 1 23
REMARK H PARENT 21 10 5 21
ROOT
ATOM      1  N   UNL     1     -27.421   8.644 -23.461  1.00  0.00    -0.324 N 
ATOM      2  N   UNL     1     -28.987   7.960 -22.065  1.00  0.00    -0.213 NA
ATOM      3  C   UNL     1     -27.696   9.728 -22.669  1.00  0.00    +0.068 A 
ATOM      4  C   UNL     1     -28.682   9.271 -21.805  1.00  0.00    +0.091 A 
ATOM      5  C   UNL     1     -27.185  11.028 -22.634  1.00  0.00    +0.043 A 
ATOM      6  C   UNL     1     -27.710  11.891 -21.657  1.00  0.00    +0.014 A 
ATOM      7  C   UNL     1     -28.219   7.598 -23.064  1.00  0.00    +0.210 A 
ATOM      8  C   UNL     1     -29.208  10.143 -20.843  1.00  0.00    +0.032 A 
ATOM      9  C   UNL     1     -28.714  11.454 -20.782  1.00  0.00    +0.018 A 
ATOM     10  H   UNL     1     -26.744   8.618 -24.207  1.00  0.00    +0.170 HD
ENDROOT
BRANCH   6  11
ATOM     11  S   UNL     1     -27.127  13.577 -21.528  1.00  0.00    -0.090 SA
BRANCH  11  12
ATOM     12  C   UNL     1     -26.454  13.859 -23.157  1.00  0.00    +0.012 A 
ATOM     13  C   UNL     1     -25.078  13.784 -23.402  1.00  0.00    +0.015 A 
ATOM     14  C   UNL     1     -27.318  14.187 -24.207  1.00  0.00    +0.015 A 
ATOM     15  C   UNL     1     -24.577  14.016 -24.685  1.00  0.00    +0.001 A 
ATOM     16  C   UNL     1     -26.816  14.419 -25.490  1.00  0.00    +0.001 A 
ATOM     17  C   UNL     1     -25.445  14.330 -25.728  1.00  0.00    +0.000 A 
ENDBRANCH  11  12
ENDBRANCH   6  11
BRANCH   7  18
ATOM     18  N   UNL     1     -28.142   6.387 -23.694  1.00  0.00    -0.261 N 
ATOM     19  C   UNL     1     -27.095   6.026 -24.491  1.00  0.00    +0.413 C 
ATOM     20  O   UNL     1     -26.093   6.659 -24.782  1.00  0.00    -0.224 OA
ATOM     21  H   UNL     1     -28.870   5.699 -23.595  1.00  0.00    +0.176 HD
BRANCH  19  22
ATOM     22  O   UNL     1     -27.346   4.765 -24.949  1.00  0.00    -0.453 OA
ATOM     23  C   UNL     1     -26.769   4.487 -26.226  1.00  0.00    +0.284 C 
ENDBRANCH  19  22
ENDBRANCH   7  18
TORSDOF 4
ENDMDL
MODEL 8
REMARK VINA RESULT:    -7.700     12.622     14.427
REMARK INTER + INTRA:         -10.250
REMARK INTER:                  -9.710
REMARK INTRA:                  -0.539
REMARK UNBOUND:                -0.749
REMARK SMILES COC(=O)Nc1nc2ccc(Sc3ccccc3)cc2[nH]1
REMARK SMILES IDX 21 1 7 2 20 3 8 4 19 5 11 6 6 7 9 8 10 9 12 11 13 12 14 13
REMARK SMILES IDX 18 14 15 15 17 16 16 17 5 18 3 19 4 20 2 22 1 23
REMARK H PARENT 21 10 5 21
ROOT
ATOM      1  N   UNL     1     -29.613  -6.037 -18.078  1.00  0.00    -0.324 N 
ATOM      2  N   UNL     1     -31.663  -6.168 -18.884  1.00  0.00    -0.213 NA
ATOM      3  C   UNL     1     -30.233  -4.883 -17.675  1.00  0.00    +0.068 A 
ATOM      4  C   UNL     1     -31.515  -4.991 -18.197  1.00  0.00    +0.091 A 
ATOM      5  C   UNL     1     -29.797  -3.787 -16.926  1.00  0.00    +0.043 A 
ATOM      6  C   UNL     1     -30.732  -2.763 -16.696  1.00  0.00    +0.014 A 
ATOM      7  C   UNL     1     -30.509  -6.785 -18.802  1.00  0.00    +0.210 A 
ATOM      8  C   UNL     1     -32.435  -3.959 -17.973  1.00  0.00    +0.032 A 
ATOM      9  C   UNL     1     -32.028  -2.846 -17.222  1.00  0.00    +0.018 A 
ATOM     10  H   UNL     1     -28.661  -6.294 -17.873  1.00  0.00    +0.170 HD
ENDROOT
BRANCH   6  11
ATOM     11  S   UNL     1     -30.276  -1.314 -15.750  1.00  0.00    -0.090 SA
BRANCH  11  12
ATOM     12  C   UNL     1     -29.822  -0.164 -17.037  1.00  0.00    +0.012 A 
ATOM     13  C   UNL     1     -30.778   0.637 -17.671  1.00  0.00    +0.015 A 
ATOM     14  C   UNL     1     -28.484  -0.079 -17.438  1.00  0.00    +0.015 A 
ATOM     15  C   UNL     1     -30.397   1.525 -18.680  1.00  0.00    +0.001 A 
ATOM     16  C   UNL     1     -28.104   0.809 -18.448  1.00  0.00    +0.001 A 
ATOM     17  C   UNL     1     -29.062   1.612 -19.066  1.00  0.00    +0.000 A 
ENDBRANCH  11  12
ENDBRANCH   6  11
BRANCH   7  18
ATOM     18  N   UNL     1     -30.143  -7.995 -19.324  1.00  0.00    -0.261 N 
ATOM     19  C   UNL     1     -30.069  -8.238 -20.664  1.00  0.00    +0.413 C 
ATOM     20  O   UNL     1     -30.297  -7.485 -21.598  1.00  0.00    -0.224 OA
ATOM     21  H   UNL     1     -29.909  -8.772 -18.728  1.00  0.00    +0.176 HD
BRANCH  19  22
ATOM     22  O   UNL     1     -29.675  -9.535 -20.824  1.00  0.00    -0.453 OA
ATOM     23  C   UNL     1     -30.291 -10.195 -21.932  1.00  0.00    +0.284 C 
ENDBRANCH  19  22
ENDBRANCH   7  18
TORSDOF 4
ENDMDL
MODEL 9
REMARK VINA RESULT:    -7.676      7.392      9.447
REMARK INTER + INTRA:         -10.220
REMARK INTER:                  -9.411
REMARK INTRA:                  -0.809
REMARK UNBOUND:                -0.749
REMARK SMILES COC(=O)Nc1nc2ccc(Sc3ccccc3)cc2[nH]1
REMARK SMILES IDX 21 1 7 2 20 3 8 4 19 5 11 6 6 7 9 8 10 9 12 11 13 12 14 13
REMARK SMILES IDX 18 14 15 15 17 16 16 17 5 18 3 19 4 20 2 22 1 23
REMARK H PARENT 21 10 5 21
ROOT
ATOM      1  N   UNL     1     -30.352  14.122 -28.556  1.00  0.00    -0.324 N 
ATOM      2  N   UNL     1     -31.499  13.971 -26.677  1.00  0.00    -0.213 NA
ATOM      3  C   UNL     1     -29.481  14.505 -27.569  1.00  0.00    +0.068 A 
ATOM      4  C   UNL     1     -30.228  14.403 -26.403  1.00  0.00    +0.091 A 
ATOM      5  C   UNL     1     -28.147  14.920 -27.595  1.00  0.00    +0.043 A 
ATOM      6  C   UNL     1     -27.556  15.234 -26.359  1.00  0.00    +0.014 A 
ATOM      7  C   UNL     1     -31.558  13.806 -27.976  1.00  0.00    +0.210 A 
ATOM      8  C   UNL     1     -29.633  14.731 -25.178  1.00  0.00    +0.032 A 
ATOM      9  C   UNL     1     -28.294  15.150 -25.171  1.00  0.00    +0.018 A 
ATOM     10  H   UNL     1     -30.142  14.076 -29.540  1.00  0.00    +0.170 HD
ENDROOT
BRANCH   6  11
ATOM     11  S   UNL     1     -25.854  15.779 -26.280  1.00  0.00    -0.090 SA
BRANCH  11  12
ATOM     12  C   UNL     1     -25.045  14.613 -27.364  1.00  0.00    +0.012 A 
ATOM     13  C   UNL     1     -25.043  13.241 -27.090  1.00  0.00    +0.015 A 
ATOM     14  C   UNL     1     -24.376  15.085 -28.498  1.00  0.00    +0.015 A 
ATOM     15  C   UNL     1     -24.397  12.351 -27.950  1.00  0.00    +0.001 A 
ATOM     16  C   UNL     1     -23.730  14.194 -29.359  1.00  0.00    +0.001 A 
ATOM     17  C   UNL     1     -23.743  12.827 -29.085  1.00  0.00    +0.000 A 
ENDBRANCH  11  12
ENDBRANCH   6  11
BRANCH   7  18
ATOM     18  N   UNL     1     -32.610  13.389 -28.743  1.00  0.00    -0.261 N 
ATOM     19  C   UNL     1     -32.473  12.525 -29.790  1.00  0.00    +0.413 C 
ATOM     20  O   UNL     1     -31.463  11.992 -30.223  1.00  0.00    -0.224 OA
ATOM     21  H   UNL     1     -33.547  13.708 -28.564  1.00  0.00    +0.176 HD
BRANCH  19  22
ATOM     22  O   UNL     1     -33.713  12.328 -30.323  1.00  0.00    -0.453 OA
ATOM     23  C   UNL     1     -34.604  11.609 -29.468  1.00  0.00    +0.284 C 
ENDBRANCH  19  22
ENDBRANCH   7  18
TORSDOF 4
ENDMDL
