MODEL 1
REMARK VINA RESULT:    -7.726      0.000      0.000
REMARK INTER + INTRA:         -10.030
REMARK INTER:                  -9.533
REMARK INTRA:                  -0.497
REMARK UNBOUND:                -0.497
REMARK SMILES COC(=O)Nc1nc2ccc(Sc3ccccc3)cc2[nH]1
REMARK SMILES IDX 21 1 7 2 20 3 8 4 19 5 11 6 6 7 9 8 10 9 12 11 13 12 14 13
REMARK SMILES IDX 18 14 15 15 17 16 16 17 5 18 3 19 4 20 2 22 1 23
REMARK H PARENT 21 10 5 21
ROOT
ATOM      1  N   UNL     1      10.070  70.113  18.432  1.00  0.00    -0.324 N 
ATOM      2  N   UNL     1       9.666  71.957  17.290  1.00  0.00    -0.213 NA
ATOM      3  C   UNL     1      11.300  70.562  18.025  1.00  0.00    +0.068 A 
ATOM      4  C   UNL     1      11.016  71.718  17.310  1.00  0.00    +0.091 A 
ATOM      5  C   UNL     1      12.595  70.073  18.213  1.00  0.00    +0.043 A 
ATOM      6  C   UNL     1      13.643  70.816  17.646  1.00  0.00    +0.014 A 
ATOM      7  C   UNL     1       9.112  70.983  17.970  1.00  0.00    +0.210 A 
ATOM      8  C   UNL     1      12.067  72.444  16.737  1.00  0.00    +0.032 A 
ATOM      9  C   UNL     1      13.379  71.979  16.910  1.00  0.00    +0.018 A 
ATOM     10  H   UNL     1       9.899  69.286  18.981  1.00  0.00    +0.170 HD
ENDROOT
BRANCH   6  11
ATOM     11  S   UNL     1      15.339  70.276  17.825  1.00  0.00    -0.090 SA
BRANCH  11  12
ATOM     12  C   UNL     1      15.693  69.630  16.200  1.00  0.00    +0.012 A 
ATOM     13  C   UNL     1      14.698  69.029  15.420  1.00  0.00    +0.015 A 
ATOM     14  C   UNL     1      16.999  69.702  15.704  1.00  0.00    +0.015 A 
ATOM     15  C   UNL     1      15.003  68.524  14.154  1.00  0.00    +0.001 A 
ATOM     16  C   UNL     1      17.303  69.196  14.437  1.00  0.00    +0.001 A 
ATOM     17  C   UNL     1      16.303  68.610  13.662  1.00  0.00    +0.000 A 
ENDBRANCH  11  12
ENDBRANCH   6  11
BRANCH   7  18
ATOM     18  N   UNL     1       7.789  70.767  18.239  1.00  0.00    -0.261 N 
ATOM     19  C   UNL     1       7.047  71.586  19.040  1.00  0.00    +0.413 C 
ATOM     20  O   UNL     1       7.386  72.597  19.633  1.00  0.00    -0.224 OA
ATOM     21  H   UNL     1       7.298  69.979  17.851  1.00  0.00    +0.176 HD
BRANCH  19  22
ATOM     22  O   UNL     1       5.783  71.076  19.086  1.00  0.00    -0.453 OA
ATOM     23  C   UNL     1       4.759  72.043  18.845  1.00  0.00    +0.284 C 
ENDBRANCH  19  22
ENDBRANCH   7  18
TORSDOF 4
ENDMDL
MODEL 2
REMARK VINA RESULT:    -7.684      1.097      2.015
REMARK INTER + INTRA:          -9.977
REMARK INTER:                  -9.211
REMARK INTRA:                  -0.766
REMARK UNBOUND:                -0.497
REMARK SMILES COC(=O)Nc1nc2ccc(Sc3ccccc3)cc2[nH]1
REMARK SMILES IDX 21 1 7 2 20 3 8 4 19 5 11 6 6 7 9 8 10 9 12 11 13 12 14 13
REMARK SMILES IDX 18 14 15 15 17 16 16 17 5 18 3 19 4 20 2 22 1 23
REMARK H PARENT 21 10 5 21
ROOT
ATOM      1  N   UNL     1       8.961  71.560  17.948  1.00  0.00    -0.324 N 
ATOM      2  N   UNL     1       9.017  69.628  19.012  1.00  0.00    -0.213 NA
ATOM      3  C   UNL     1      10.284  71.204  17.979  1.00  0.00    +0.068 A 
ATOM      4  C   UNL     1      10.290  69.990  18.654  1.00  0.00    +0.091 A 
ATOM      5  C   UNL     1      11.441  71.818  17.493  1.00  0.00    +0.043 A 
ATOM      6  C   UNL     1      12.655  71.144  17.704  1.00  0.00    +0.014 A 
ATOM      7  C   UNL     1       8.230  70.582  18.580  1.00  0.00    +0.210 A 
ATOM      8  C   UNL     1      11.507  69.333  18.872  1.00  0.00    +0.032 A 
ATOM      9  C   UNL     1      12.686  69.924  18.393  1.00  0.00    +0.018 A 
ATOM     10  H   UNL     1       8.588  72.396  17.528  1.00  0.00    +0.170 HD
ENDROOT
BRANCH   6  11
ATOM     11  S   UNL     1      14.195  71.845  17.124  1.00  0.00    -0.090 SA
BRANCH  11  12
ATOM     12  C   UNL     1      14.764  70.592  15.987  1.00  0.00    +0.012 A 
ATOM     13  C   UNL     1      16.080  70.118  16.021  1.00  0.00    +0.015 A 
ATOM     14  C   UNL     1      13.882  70.091  15.024  1.00  0.00    +0.015 A 
ATOM     15  C   UNL     1      16.501  69.141  15.115  1.00  0.00    +0.001 A 
ATOM     16  C   UNL     1      14.304  69.114  14.118  1.00  0.00    +0.001 A 
ATOM     17  C   UNL     1      15.614  68.639  14.167  1.00  0.00    +0.000 A 
ENDBRANCH  11  12
ENDBRANCH   6  11
BRANCH   7  18
ATOM     18  N   UNL     1       6.871  70.691  18.688  1.00  0.00    -0.261 N 
ATOM     19  C   UNL     1       6.250  71.791  19.203  1.00  0.00    +0.413 C 
ATOM     20  O   UNL     1       6.740  72.820  19.640  1.00  0.00    -0.224 OA
ATOM     21  H   UNL     1       6.262  69.950  18.386  1.00  0.00    +0.176 HD
BRANCH  19  22
ATOM     22  O   UNL     1       4.906  71.560  19.158  1.00  0.00    -0.453 OA
ATOM     23  C   UNL     1       4.227  72.285  18.131  1.00  0.00    +0.284 C 
ENDBRANCH  19  22
ENDBRANCH   7  18
TORSDOF 4
ENDMDL
MODEL 3
REMARK VINA RESULT:    -7.345      2.555      3.179
REMARK INTER + INTRA:          -9.559
REMARK INTER:                  -9.160
REMARK INTRA:                  -0.399
REMARK UNBOUND:                -0.497
REMARK SMILES COC(=O)Nc1nc2ccc(Sc3ccccc3)cc2[nH]1
REMARK SMILES IDX 21 1 7 2 20 3 8 4 19 5 11 6 6 7 9 8 10 9 12 11 13 12 14 13
REMARK SMILES IDX 18 14 15 15 17 16 16 17 5 18 3 19 4 20 2 22 1 23
REMARK H PARENT 21 10 5 21
ROOT
ATOM      1  N   UNL     1       9.838  71.268  16.153  1.00  0.00    -0.324 N 
ATOM      2  N   UNL     1       8.486  69.525  16.082  1.00  0.00    -0.213 NA
ATOM      3  C   UNL     1      10.368  70.439  15.199  1.00  0.00    +0.068 A 
ATOM      4  C   UNL     1       9.502  69.353  15.178  1.00  0.00    +0.091 A 
ATOM      5  C   UNL     1      11.495  70.539  14.379  1.00  0.00    +0.043 A 
ATOM      6  C   UNL     1      11.732  69.475  13.492  1.00  0.00    +0.014 A 
ATOM      7  C   UNL     1       8.703  70.682  16.660  1.00  0.00    +0.210 A 
ATOM      8  C   UNL     1       9.754  68.292  14.300  1.00  0.00    +0.032 A 
ATOM      9  C   UNL     1      10.877  68.364  13.462  1.00  0.00    +0.018 A 
ATOM     10  H   UNL     1      10.215  72.159  16.431  1.00  0.00    +0.170 HD
ENDROOT
BRANCH   6  11
ATOM     11  S   UNL     1      13.149  69.503  12.400  1.00  0.00    -0.090 SA
BRANCH  11  12
ATOM     12  C   UNL     1      14.498  69.261  13.544  1.00  0.00    +0.012 A 
ATOM     13  C   UNL     1      14.300  69.311  14.928  1.00  0.00    +0.015 A 
ATOM     14  C   UNL     1      15.787  69.042  13.045  1.00  0.00    +0.015 A 
ATOM     15  C   UNL     1      15.375  69.126  15.801  1.00  0.00    +0.001 A 
ATOM     16  C   UNL     1      16.861  68.858  13.919  1.00  0.00    +0.001 A 
ATOM     17  C   UNL     1      16.653  68.897  15.297  1.00  0.00    +0.000 A 
ENDBRANCH  11  12
ENDBRANCH   6  11
BRANCH   7  18
ATOM     18  N   UNL     1       7.974  71.306  17.634  1.00  0.00    -0.261 N 
ATOM     19  C   UNL     1       8.422  71.468  18.912  1.00  0.00    +0.413 C 
ATOM     20  O   UNL     1       9.479  71.116  19.409  1.00  0.00    -0.224 OA
ATOM     21  H   UNL     1       7.059  71.679  17.444  1.00  0.00    +0.176 HD
BRANCH  19  22
ATOM     22  O   UNL     1       7.449  72.127  19.606  1.00  0.00    -0.453 OA
ATOM     23  C   UNL     1       6.120  71.806  19.187  1.00  0.00    +0.284 C 
ENDBRANCH  19  22
ENDBRANCH   7  18
TORSDOF 4
ENDMDL
MODEL 4
REMARK VINA RESULT:    -7.342      6.270      9.251
REMARK INTER + INTRA:          -9.556
REMARK INTER:                  -9.193
REMARK INTRA:                  -0.362
REMARK UNBOUND:                -0.497
REMARK SMILES COC(=O)Nc1nc2ccc(Sc3ccccc3)cc2[nH]1
REMARK SMILES IDX 21 1 7 2 20 3 8 4 19 5 11 6 6 7 9 8 10 9 12 11 13 12 14 13
REMARK SMILES IDX 18 14 15 15 17 16 16 17 5 18 3 19 4 20 2 22 1 23
REMARK H PARENT 21 10 5 21
ROOT
ATOM      1  N   UNL     1      17.938  69.126  14.519  1.00  0.00    -0.324 N 
ATOM      2  N   UNL     1      17.454  69.411  16.653  1.00  0.00    -0.213 NA
ATOM      3  C   UNL     1      16.571  69.065  14.590  1.00  0.00    +0.068 A 
ATOM      4  C   UNL     1      16.296  69.244  15.940  1.00  0.00    +0.091 A 
ATOM      5  C   UNL     1      15.581  68.873  13.622  1.00  0.00    +0.043 A 
ATOM      6  C   UNL     1      14.249  68.877  14.068  1.00  0.00    +0.014 A 
ATOM      7  C   UNL     1      18.433  69.338  15.784  1.00  0.00    +0.210 A 
ATOM      8  C   UNL     1      14.965  69.232  16.375  1.00  0.00    +0.032 A 
ATOM      9  C   UNL     1      13.948  69.044  15.427  1.00  0.00    +0.018 A 
ATOM     10  H   UNL     1      18.487  69.036  13.680  1.00  0.00    +0.170 HD
ENDROOT
BRANCH   6  11
ATOM     11  S   UNL     1      12.905  68.638  12.911  1.00  0.00    -0.090 SA
BRANCH  11  12
ATOM     12  C   UNL     1      11.539  69.399  13.772  1.00  0.00    +0.012 A 
ATOM     13  C   UNL     1      11.554  70.757  14.108  1.00  0.00    +0.015 A 
ATOM     14  C   UNL     1      10.441  68.615  14.141  1.00  0.00    +0.015 A 
ATOM     15  C   UNL     1      10.475  71.327  14.789  1.00  0.00    +0.001 A 
ATOM     16  C   UNL     1       9.363  69.186  14.822  1.00  0.00    +0.001 A 
ATOM     17  C   UNL     1       9.380  70.542  15.143  1.00  0.00    +0.000 A 
ENDBRANCH  11  12
ENDBRANCH   6  11
BRANCH   7  18
ATOM     18  N   UNL     1      19.779  69.441  15.995  1.00  0.00    -0.261 N 
ATOM     19  C   UNL     1      20.525  68.443  16.553  1.00  0.00    +0.413 C 
ATOM     20  O   UNL     1      20.171  67.344  16.946  1.00  0.00    -0.224 OA
ATOM     21  H   UNL     1      20.286  70.273  15.744  1.00  0.00    +0.176 HD
BRANCH  19  22
ATOM     22  O   UNL     1      21.816  68.882  16.612  1.00  0.00    -0.453 OA
ATOM     23  C   UNL     1      22.417  68.745  17.901  1.00  0.00    +0.284 C 
ENDBRANCH  19  22
ENDBRANCH   7  18
TORSDOF 4
ENDMDL
MODEL 5
REMARK VINA RESULT:    -7.286      1.561      2.107
REMARK INTER + INTRA:          -9.486
REMARK INTER:                  -9.416
REMARK INTRA:                  -0.070
REMARK UNBOUND:                -0.497
REMARK SMILES COC(=O)Nc1nc2ccc(Sc3ccccc3)cc2[nH]1
REMARK SMILES IDX 21 1 7 2 20 3 8 4 19 5 11 6 6 7 9 8 10 9 12 11 13 12 14 13
REMARK SMILES IDX 18 14 15 15 17 16 16 17 5 18 3 19 4 20 2 22 1 23
REMARK H PARENT 21 10 5 21
ROOT
ATOM      1  N   UNL     1       9.151  69.834  16.528  1.00  0.00    -0.324 N 
ATOM      2  N   UNL     1       9.569  71.782  17.475  1.00  0.00    -0.213 NA
ATOM      3  C   UNL     1      10.431  70.150  16.151  1.00  0.00    +0.068 A 
ATOM      4  C   UNL     1      10.665  71.378  16.757  1.00  0.00    +0.091 A 
ATOM      5  C   UNL     1      11.373  69.492  15.357  1.00  0.00    +0.043 A 
ATOM      6  C   UNL     1      12.616  70.126  15.191  1.00  0.00    +0.014 A 
ATOM      7  C   UNL     1       8.668  70.842  17.327  1.00  0.00    +0.210 A 
ATOM      8  C   UNL     1      11.902  72.007  16.574  1.00  0.00    +0.032 A 
ATOM      9  C   UNL     1      12.871  71.370  15.784  1.00  0.00    +0.018 A 
ATOM     10  H   UNL     1       8.651  68.999  16.266  1.00  0.00    +0.170 HD
ENDROOT
BRANCH   6  11
ATOM     11  S   UNL     1      13.893  69.370  14.191  1.00  0.00    -0.090 SA
BRANCH  11  12
ATOM     12  C   UNL     1      15.240  69.239  15.355  1.00  0.00    +0.012 A 
ATOM     13  C   UNL     1      16.574  69.336  14.941  1.00  0.00    +0.015 A 
ATOM     14  C   UNL     1      14.959  69.010  16.705  1.00  0.00    +0.015 A 
ATOM     15  C   UNL     1      17.610  69.223  15.871  1.00  0.00    +0.001 A 
ATOM     16  C   UNL     1      15.996  68.897  17.635  1.00  0.00    +0.001 A 
ATOM     17  C   UNL     1      17.321  69.006  17.216  1.00  0.00    +0.000 A 
ENDBRANCH  11  12
ENDBRANCH   6  11
BRANCH   7  18
ATOM     18  N   UNL     1       7.404  70.774  17.843  1.00  0.00    -0.261 N 
ATOM     19  C   UNL     1       6.999  71.502  18.924  1.00  0.00    +0.413 C 
ATOM     20  O   UNL     1       7.633  72.299  19.597  1.00  0.00    -0.224 OA
ATOM     21  H   UNL     1       6.706  70.171  17.440  1.00  0.00    +0.176 HD
BRANCH  19  22
ATOM     22  O   UNL     1       5.692  71.191  19.161  1.00  0.00    -0.453 OA
ATOM     23  C   UNL     1       4.787  72.273  18.931  1.00  0.00    +0.284 C 
ENDBRANCH  19  22
ENDBRANCH   7  18
TORSDOF 4
ENDMDL
MODEL 6
REMARK VINA RESULT:    -7.225      1.502      1.897
REMARK INTER + INTRA:          -9.411
REMARK INTER:                  -8.712
REMARK INTRA:                  -0.698
REMARK UNBOUND:                -0.497
REMARK SMILES COC(=O)Nc1nc2ccc(Sc3ccccc3)cc2[nH]1
REMARK SMILES IDX 21 1 7 2 20 3 8 4 19 5 11 6 6 7 9 8 10 9 12 11 13 12 14 13
REMARK SMILES IDX 18 14 15 15 17 16 16 17 5 18 3 19 4 20 2 22 1 23
REMARK H PARENT 21 10 5 21
ROOT
ATOM      1  N   UNL     1       9.969  70.562  17.660  1.00  0.00    -0.324 N 
ATOM      2  N   UNL     1      10.695  72.576  18.195  1.00  0.00    -0.213 NA
ATOM      3  C   UNL     1      11.162  70.703  16.999  1.00  0.00    +0.068 A 
ATOM      4  C   UNL     1      11.593  71.975  17.351  1.00  0.00    +0.091 A 
ATOM      5  C   UNL     1      11.879  69.855  16.150  1.00  0.00    +0.043 A 
ATOM      6  C   UNL     1      13.099  70.341  15.651  1.00  0.00    +0.014 A 
ATOM      7  C   UNL     1       9.724  71.713  18.370  1.00  0.00    +0.210 A 
ATOM      8  C   UNL     1      12.805  72.454  16.838  1.00  0.00    +0.032 A 
ATOM      9  C   UNL     1      13.548  71.626  15.984  1.00  0.00    +0.018 A 
ATOM     10  H   UNL     1       9.374  69.750  17.631  1.00  0.00    +0.170 HD
ENDROOT
BRANCH   6  11
ATOM     11  S   UNL     1      14.094  69.337  14.555  1.00  0.00    -0.090 SA
BRANCH  11  12
ATOM     12  C   UNL     1      15.616  69.184  15.476  1.00  0.00    +0.012 A 
ATOM     13  C   UNL     1      15.614  69.005  16.863  1.00  0.00    +0.015 A 
ATOM     14  C   UNL     1      16.837  69.271  14.799  1.00  0.00    +0.015 A 
ATOM     15  C   UNL     1      16.819  68.895  17.562  1.00  0.00    +0.001 A 
ATOM     16  C   UNL     1      18.042  69.161  15.498  1.00  0.00    +0.001 A 
ATOM     17  C   UNL     1      18.031  68.971  16.879  1.00  0.00    +0.000 A 
ENDBRANCH  11  12
ENDBRANCH   6  11
BRANCH   7  18
ATOM     18  N   UNL     1       8.591  71.836  19.125  1.00  0.00    -0.261 N 
ATOM     19  C   UNL     1       7.344  71.556  18.648  1.00  0.00    +0.413 C 
ATOM     20  O   UNL     1       7.011  71.170  17.539  1.00  0.00    -0.224 OA
ATOM     21  H   UNL     1       8.631  72.145  20.082  1.00  0.00    +0.176 HD
BRANCH  19  22
ATOM     22  O   UNL     1       6.458  71.785  19.660  1.00  0.00    -0.453 OA
ATOM     23  C   UNL     1       5.191  72.280  19.222  1.00  0.00    +0.284 C 
ENDBRANCH  19  22
ENDBRANCH   7  18
TORSDOF 4
ENDMDL
MODEL 7
REMARK VINA RESULT:    -7.100      2.548      2.976
REMARK INTER + INTRA:          -9.257
REMARK INTER:                  -8.830
REMARK INTRA:                  -0.427
REMARK UNBOUND:                -0.497
REMARK SMILES COC(=O)Nc1nc2ccc(Sc3ccccc3)cc2[nH]1
REMARK SMILES IDX 21 1 7 2 20 3 8 4 19 5 11 6 6 7 9 8 10 9 12 11 13 12 14 13
REMARK SMILES IDX 18 14 15 15 17 16 16 17 5 18 3 19 4 20 2 22 1 23
REMARK H PARENT 21 10 5 21
ROOT
ATOM      1  N   UNL     1      12.270  73.612  18.238  1.00  0.00    -0.324 N 
ATOM      2  N   UNL     1      11.119  72.030  19.258  1.00  0.00    -0.213 NA
ATOM      3  C   UNL     1      13.131  72.550  18.343  1.00  0.00    +0.068 A 
ATOM      4  C   UNL     1      12.383  71.574  18.989  1.00  0.00    +0.091 A 
ATOM      5  C   UNL     1      14.457  72.364  17.943  1.00  0.00    +0.043 A 
ATOM      6  C   UNL     1      15.031  71.111  18.214  1.00  0.00    +0.014 A 
ATOM      7  C   UNL     1      11.067  73.258  18.800  1.00  0.00    +0.210 A 
ATOM      8  C   UNL     1      12.970  70.333  19.266  1.00  0.00    +0.032 A 
ATOM      9  C   UNL     1      14.299  70.115  18.875  1.00  0.00    +0.018 A 
ATOM     10  H   UNL     1      12.484  74.501  17.815  1.00  0.00    +0.170 HD
ENDROOT
BRANCH   6  11
ATOM     11  S   UNL     1      16.724  70.769  17.747  1.00  0.00    -0.090 SA
BRANCH  11  12
ATOM     12  C   UNL     1      16.514  69.979  16.160  1.00  0.00    +0.012 A 
ATOM     13  C   UNL     1      15.276  69.466  15.757  1.00  0.00    +0.015 A 
ATOM     14  C   UNL     1      17.617  69.848  15.310  1.00  0.00    +0.015 A 
ATOM     15  C   UNL     1      15.140  68.847  14.513  1.00  0.00    +0.001 A 
ATOM     16  C   UNL     1      17.481  69.228  14.065  1.00  0.00    +0.001 A 
ATOM     17  C   UNL     1      16.241  68.730  13.667  1.00  0.00    +0.000 A 
ENDBRANCH  11  12
ENDBRANCH   6  11
BRANCH   7  18
ATOM     18  N   UNL     1      10.025  74.142  18.826  1.00  0.00    -0.261 N 
ATOM     19  C   UNL     1       9.793  74.991  19.868  1.00  0.00    +0.413 C 
ATOM     20  O   UNL     1      10.418  75.124  20.908  1.00  0.00    -0.224 OA
ATOM     21  H   UNL     1       9.372  74.204  18.062  1.00  0.00    +0.176 HD
BRANCH  19  22
ATOM     22  O   UNL     1       8.684  75.723  19.560  1.00  0.00    -0.453 OA
ATOM     23  C   UNL     1       7.545  75.418  20.368  1.00  0.00    +0.284 C 
ENDBRANCH  19  22
ENDBRANCH   7  18
TORSDOF 4
ENDMDL
MODEL 8
REMARK VINA RESULT:    -7.090      2.975      4.064
REMARK INTER + INTRA:          -9.245
REMARK INTER:                  -8.633
REMARK INTRA:                  -0.612
REMARK UNBOUND:                -0.497
REMARK SMILES COC(=O)Nc1nc2ccc(Sc3ccccc3)cc2[nH]1
REMARK SMILES IDX 21 1 7 2 20 3 8 4 19 5 11 6 6 7 9 8 10 9 12 11 13 12 14 13
REMARK SMILES IDX 18 14 15 15 17 16 16 17 5 18 3 19 4 20 2 22 1 23
REMARK H PARENT 21 10 5 21
ROOT
ATOM      1  N   UNL     1      10.368  73.003  18.066  1.00  0.00    -0.324 N 
ATOM      2  N   UNL     1       9.125  71.566  19.188  1.00  0.00    -0.213 NA
ATOM      3  C   UNL     1      10.109  71.985  17.185  1.00  0.00    +0.068 A 
ATOM      4  C   UNL     1       9.330  71.098  17.916  1.00  0.00    +0.091 A 
ATOM      5  C   UNL     1      10.478  71.769  15.854  1.00  0.00    +0.043 A 
ATOM      6  C   UNL     1      10.012  70.590  15.250  1.00  0.00    +0.014 A 
ATOM      7  C   UNL     1       9.756  72.713  19.262  1.00  0.00    +0.210 A 
ATOM      8  C   UNL     1       8.883  69.918  17.308  1.00  0.00    +0.032 A 
ATOM      9  C   UNL     1       9.234  69.674  15.972  1.00  0.00    +0.018 A 
ATOM     10  H   UNL     1      10.913  73.826  17.868  1.00  0.00    +0.170 HD
ENDROOT
BRANCH   6  11
ATOM     11  S   UNL     1      10.428  70.216  13.551  1.00  0.00    -0.090 SA
BRANCH  11  12
ATOM     12  C   UNL     1      12.145  69.751  13.687  1.00  0.00    +0.012 A 
ATOM     13  C   UNL     1      12.989  69.738  12.570  1.00  0.00    +0.015 A 
ATOM     14  C   UNL     1      12.654  69.365  14.932  1.00  0.00    +0.015 A 
ATOM     15  C   UNL     1      14.328  69.363  12.703  1.00  0.00    +0.001 A 
ATOM     16  C   UNL     1      13.993  68.990  15.063  1.00  0.00    +0.001 A 
ATOM     17  C   UNL     1      14.830  68.992  13.948  1.00  0.00    +0.000 A 
ENDBRANCH  11  12
ENDBRANCH   6  11
BRANCH   7  18
ATOM     18  N   UNL     1       9.856  73.572  20.320  1.00  0.00    -0.261 N 
ATOM     19  C   UNL     1       9.349  74.838  20.304  1.00  0.00    +0.413 C 
ATOM     20  O   UNL     1       8.750  75.417  19.411  1.00  0.00    -0.224 OA
ATOM     21  H   UNL     1      10.318  73.301  21.172  1.00  0.00    +0.176 HD
BRANCH  19  22
ATOM     22  O   UNL     1       9.625  75.406  21.513  1.00  0.00    -0.453 OA
ATOM     23  C   UNL     1      10.873  74.993  22.075  1.00  0.00    +0.284 C 
ENDBRANCH  19  22
ENDBRANCH   7  18
TORSDOF 4
ENDMDL
MODEL 9
REMARK VINA RESULT:    -7.042      2.943      3.666
REMARK INTER + INTRA:          -9.186
REMARK INTER:                  -9.005
REMARK INTRA:                  -0.181
REMARK UNBOUND:                -0.497
REMARK SMILES COC(=O)Nc1nc2ccc(Sc3ccccc3)cc2[nH]1
REMARK SMILES IDX 21 1 7 2 20 3 8 4 19 5 11 6 6 7 9 8 10 9 12 11 13 12 14 13
REMARK SMILES IDX 18 14 15 15 17 16 16 17 5 18 3 19 4 20 2 22 1 23
REMARK H PARENT 21 10 5 21
ROOT
ATOM      1  N   UNL     1      11.729  72.389  16.639  1.00  0.00    -0.324 N 
ATOM      2  N   UNL     1       9.690  71.598  16.926  1.00  0.00    -0.213 NA
ATOM      3  C   UNL     1      11.618  71.349  15.753  1.00  0.00    +0.068 A 
ATOM      4  C   UNL     1      10.330  70.871  15.957  1.00  0.00    +0.091 A 
ATOM      5  C   UNL     1      12.503  70.801  14.821  1.00  0.00    +0.043 A 
ATOM      6  C   UNL     1      12.033  69.718  14.060  1.00  0.00    +0.014 A 
ATOM      7  C   UNL     1      10.545  72.507  17.326  1.00  0.00    +0.210 A 
ATOM      8  C   UNL     1       9.876  69.782  15.202  1.00  0.00    +0.032 A 
ATOM      9  C   UNL     1      10.741  69.211  14.257  1.00  0.00    +0.018 A 
ATOM     10  H   UNL     1      12.542  72.971  16.762  1.00  0.00    +0.170 HD
ENDROOT
BRANCH   6  11
ATOM     11  S   UNL     1      13.087  68.941  12.840  1.00  0.00    -0.090 SA
BRANCH  11  12
ATOM     12  C   UNL     1      14.682  69.007  13.639  1.00  0.00    +0.012 A 
ATOM     13  C   UNL     1      15.870  69.021  12.898  1.00  0.00    +0.015 A 
ATOM     14  C   UNL     1      14.749  69.017  15.036  1.00  0.00    +0.015 A 
ATOM     15  C   UNL     1      17.106  69.066  13.547  1.00  0.00    +0.001 A 
ATOM     16  C   UNL     1      15.985  69.061  15.685  1.00  0.00    +0.001 A 
ATOM     17  C   UNL     1      17.163  69.088  14.939  1.00  0.00    +0.000 A 
ENDBRANCH  11  12
ENDBRANCH   6  11
BRANCH   7  18
ATOM     18  N   UNL     1      10.388  73.476  18.277  1.00  0.00    -0.261 N 
ATOM     19  C   UNL     1      11.210  73.600  19.359  1.00  0.00    +0.413 C 
ATOM     20  O   UNL     1      12.176  72.924  19.674  1.00  0.00    -0.224 OA
ATOM     21  H   UNL     1       9.643  74.151  18.218  1.00  0.00    +0.176 HD
BRANCH  19  22
ATOM     22  O   UNL     1      10.765  74.663  20.091  1.00  0.00    -0.453 OA
ATOM     23  C   UNL     1       9.367  74.920  19.948  1.00  0.00    +0.284 C 
ENDBRANCH  19  22
ENDBRANCH   7  18
TORSDOF 4
ENDMDL
