MODEL 1
REMARK VINA RESULT:    -6.859      0.000      0.000
REMARK INTER + INTRA:          -9.230
REMARK INTER:                  -8.462
REMARK INTRA:                  -0.768
REMARK UNBOUND:                -0.768
REMARK SMILES COC(=O)Nc1nc2ccc(Sc3ccccc3)cc2[nH]1
REMARK SMILES IDX 21 1 7 2 20 3 8 4 19 5 11 6 6 7 9 8 10 9 12 11 13 12 14 13
REMARK SMILES IDX 18 14 15 15 17 16 16 17 5 18 3 19 4 20 2 22 1 23
REMARK H PARENT 21 10 5 21
ROOT
ATOM      1  N   UNL     1     -13.170 -17.595  22.853  1.00  0.00    -0.324 N 
ATOM      2  N   UNL     1     -11.188 -16.678  22.542  1.00  0.00    -0.213 NA
ATOM      3  C   UNL     1     -12.791 -17.129  24.085  1.00  0.00    +0.068 A 
ATOM      4  C   UNL     1     -11.544 -16.561  23.860  1.00  0.00    +0.091 A 
ATOM      5  C   UNL     1     -13.410 -17.155  25.338  1.00  0.00    +0.043 A 
ATOM      6  C   UNL     1     -12.713 -16.559  26.402  1.00  0.00    +0.014 A 
ATOM      7  C   UNL     1     -12.177 -17.301  21.950  1.00  0.00    +0.210 A 
ATOM      8  C   UNL     1     -10.852 -15.982  24.931  1.00  0.00    +0.032 A 
ATOM      9  C   UNL     1     -11.448 -15.990  26.201  1.00  0.00    +0.018 A 
ATOM     10  H   UNL     1     -14.034 -18.069  22.645  1.00  0.00    +0.170 HD
ENDROOT
BRANCH   6  11
ATOM     11  S   UNL     1     -13.415 -16.539  28.048  1.00  0.00    -0.090 SA
BRANCH  11  12
ATOM     12  C   UNL     1     -14.355 -15.022  28.028  1.00  0.00    +0.012 A 
ATOM     13  C   UNL     1     -13.725 -13.774  27.974  1.00  0.00    +0.015 A 
ATOM     14  C   UNL     1     -15.751 -15.081  28.095  1.00  0.00    +0.015 A 
ATOM     15  C   UNL     1     -14.484 -12.601  27.967  1.00  0.00    +0.001 A 
ATOM     16  C   UNL     1     -16.509 -13.907  28.088  1.00  0.00    +0.001 A 
ATOM     17  C   UNL     1     -15.874 -12.668  28.022  1.00  0.00    +0.000 A 
ENDBRANCH  11  12
ENDBRANCH   6  11
BRANCH   7  18
ATOM     18  N   UNL     1     -12.305 -17.658  20.636  1.00  0.00    -0.261 N 
ATOM     19  C   UNL     1     -13.472 -17.534  19.939  1.00  0.00    +0.413 C 
ATOM     20  O   UNL     1     -14.554 -17.114  20.317  1.00  0.00    -0.224 OA
ATOM     21  H   UNL     1     -11.529 -18.035  20.119  1.00  0.00    +0.176 HD
BRANCH  19  22
ATOM     22  O   UNL     1     -13.240 -17.979  18.671  1.00  0.00    -0.453 OA
ATOM     23  C   UNL     1     -11.973 -18.619  18.503  1.00  0.00    +0.284 C 
ENDBRANCH  19  22
ENDBRANCH   7  18
TORSDOF 4
ENDMDL
MODEL 2
REMARK VINA RESULT:    -6.785      1.000      1.212
REMARK INTER + INTRA:          -9.140
REMARK INTER:                  -8.688
REMARK INTRA:                  -0.452
REMARK UNBOUND:                -0.768
REMARK SMILES COC(=O)Nc1nc2ccc(Sc3ccccc3)cc2[nH]1
REMARK SMILES IDX 21 1 7 2 20 3 8 4 19 5 11 6 6 7 9 8 10 9 12 11 13 12 14 13
REMARK SMILES IDX 18 14 15 15 17 16 16 17 5 18 3 19 4 20 2 22 1 23
REMARK H PARENT 21 10 5 21
ROOT
ATOM      1  N   UNL     1     -13.195 -17.525  23.084  1.00  0.00    -0.324 N 
ATOM      2  N   UNL     1     -11.197 -16.643  22.766  1.00  0.00    -0.213 NA
ATOM      3  C   UNL     1     -12.801 -17.070  24.316  1.00  0.00    +0.068 A 
ATOM      4  C   UNL     1     -11.545 -16.524  24.086  1.00  0.00    +0.091 A 
ATOM      5  C   UNL     1     -13.414 -17.089  25.571  1.00  0.00    +0.043 A 
ATOM      6  C   UNL     1     -12.702 -16.509  26.634  1.00  0.00    +0.014 A 
ATOM      7  C   UNL     1     -12.201 -17.247  22.177  1.00  0.00    +0.210 A 
ATOM      8  C   UNL     1     -10.838 -15.961  25.156  1.00  0.00    +0.032 A 
ATOM      9  C   UNL     1     -11.428 -15.963  26.428  1.00  0.00    +0.018 A 
ATOM     10  H   UNL     1     -14.068 -17.983  22.879  1.00  0.00    +0.170 HD
ENDROOT
BRANCH   6  11
ATOM     11  S   UNL     1     -13.395 -16.482  28.283  1.00  0.00    -0.090 SA
BRANCH  11  12
ATOM     12  C   UNL     1     -14.445 -15.040  28.217  1.00  0.00    +0.012 A 
ATOM     13  C   UNL     1     -13.912 -13.756  28.060  1.00  0.00    +0.015 A 
ATOM     14  C   UNL     1     -15.829 -15.194  28.350  1.00  0.00    +0.015 A 
ATOM     15  C   UNL     1     -14.755 -12.643  28.019  1.00  0.00    +0.001 A 
ATOM     16  C   UNL     1     -16.671 -14.080  28.309  1.00  0.00    +0.001 A 
ATOM     17  C   UNL     1     -16.133 -12.805  28.140  1.00  0.00    +0.000 A 
ENDBRANCH  11  12
ENDBRANCH   6  11
BRANCH   7  18
ATOM     18  N   UNL     1     -12.341 -17.597  20.863  1.00  0.00    -0.261 N 
ATOM     19  C   UNL     1     -11.365 -18.231  20.151  1.00  0.00    +0.413 C 
ATOM     20  O   UNL     1     -10.254 -18.586  20.513  1.00  0.00    -0.224 OA
ATOM     21  H   UNL     1     -13.187 -17.397  20.356  1.00  0.00    +0.176 HD
BRANCH  19  22
ATOM     22  O   UNL     1     -11.841 -18.426  18.887  1.00  0.00    -0.453 OA
ATOM     23  C   UNL     1     -13.167 -17.934  18.685  1.00  0.00    +0.284 C 
ENDBRANCH  19  22
ENDBRANCH   7  18
TORSDOF 4
ENDMDL
MODEL 3
REMARK VINA RESULT:    -6.707      6.234      7.485
REMARK INTER + INTRA:          -9.043
REMARK INTER:                  -8.366
REMARK INTRA:                  -0.677
REMARK UNBOUND:                -0.768
REMARK SMILES COC(=O)Nc1nc2ccc(Sc3ccccc3)cc2[nH]1
REMARK SMILES IDX 21 1 7 2 20 3 8 4 19 5 11 6 6 7 9 8 10 9 12 11 13 12 14 13
REMARK SMILES IDX 18 14 15 15 17 16 16 17 5 18 3 19 4 20 2 22 1 23
REMARK H PARENT 21 10 5 21
ROOT
ATOM      1  N   UNL     1     -14.859  -8.255  24.057  1.00  0.00    -0.324 N 
ATOM      2  N   UNL     1     -13.530  -9.122  22.524  1.00  0.00    -0.213 NA
ATOM      3  C   UNL     1     -14.120  -9.204  24.715  1.00  0.00    +0.068 A 
ATOM      4  C   UNL     1     -13.297  -9.732  23.729  1.00  0.00    +0.091 A 
ATOM      5  C   UNL     1     -14.101  -9.634  26.044  1.00  0.00    +0.043 A 
ATOM      6  C   UNL     1     -13.184 -10.647  26.371  1.00  0.00    +0.014 A 
ATOM      7  C   UNL     1     -14.471  -8.235  22.739  1.00  0.00    +0.210 A 
ATOM      8  C   UNL     1     -12.396 -10.752  24.062  1.00  0.00    +0.032 A 
ATOM      9  C   UNL     1     -12.352 -11.203  25.389  1.00  0.00    +0.018 A 
ATOM     10  H   UNL     1     -15.564  -7.668  24.472  1.00  0.00    +0.170 HD
ENDROOT
BRANCH   6  11
ATOM     11  S   UNL     1     -13.080 -11.272  28.044  1.00  0.00    -0.090 SA
BRANCH  11  12
ATOM     12  C   UNL     1     -14.345 -12.531  28.046  1.00  0.00    +0.012 A 
ATOM     13  C   UNL     1     -15.701 -12.203  28.159  1.00  0.00    +0.015 A 
ATOM     14  C   UNL     1     -13.972 -13.876  27.958  1.00  0.00    +0.015 A 
ATOM     15  C   UNL     1     -16.671 -13.208  28.165  1.00  0.00    +0.001 A 
ATOM     16  C   UNL     1     -14.943 -14.881  27.964  1.00  0.00    +0.001 A 
ATOM     17  C   UNL     1     -16.292 -14.545  28.065  1.00  0.00    +0.000 A 
ENDBRANCH  11  12
ENDBRANCH   6  11
BRANCH   7  18
ATOM     18  N   UNL     1     -15.055  -7.370  21.855  1.00  0.00    -0.261 N 
ATOM     19  C   UNL     1     -16.290  -7.579  21.312  1.00  0.00    +0.413 C 
ATOM     20  O   UNL     1     -17.062  -8.507  21.489  1.00  0.00    -0.224 OA
ATOM     21  H   UNL     1     -14.589  -6.528  21.563  1.00  0.00    +0.176 HD
BRANCH  19  22
ATOM     22  O   UNL     1     -16.555  -6.527  20.485  1.00  0.00    -0.453 OA
ATOM     23  C   UNL     1     -15.627  -6.390  19.407  1.00  0.00    +0.284 C 
ENDBRANCH  19  22
ENDBRANCH   7  18
TORSDOF 4
ENDMDL
MODEL 4
REMARK VINA RESULT:    -6.647      1.909      2.617
REMARK INTER + INTRA:          -8.968
REMARK INTER:                  -8.302
REMARK INTRA:                  -0.667
REMARK UNBOUND:                -0.768
REMARK SMILES COC(=O)Nc1nc2ccc(Sc3ccccc3)cc2[nH]1
REMARK SMILES IDX 21 1 7 2 20 3 8 4 19 5 11 6 6 7 9 8 10 9 12 11 13 12 14 13
REMARK SMILES IDX 18 14 15 15 17 16 16 17 5 18 3 19 4 20 2 22 1 23
REMARK H PARENT 21 10 5 21
ROOT
ATOM      1  N   UNL     1     -10.810 -16.734  23.162  1.00  0.00    -0.324 N 
ATOM      2  N   UNL     1     -12.723 -17.773  22.800  1.00  0.00    -0.213 NA
ATOM      3  C   UNL     1     -11.515 -16.609  24.331  1.00  0.00    +0.068 A 
ATOM      4  C   UNL     1     -12.711 -17.267  24.074  1.00  0.00    +0.091 A 
ATOM      5  C   UNL     1     -11.222 -15.995  25.552  1.00  0.00    +0.043 A 
ATOM      6  C   UNL     1     -12.204 -16.075  26.554  1.00  0.00    +0.014 A 
ATOM      7  C   UNL     1     -11.572 -17.444  22.265  1.00  0.00    +0.210 A 
ATOM      8  C   UNL     1     -13.688 -17.329  25.075  1.00  0.00    +0.032 A 
ATOM      9  C   UNL     1     -13.422 -16.724  26.313  1.00  0.00    +0.018 A 
ATOM     10  H   UNL     1      -9.887 -16.370  22.992  1.00  0.00    +0.170 HD
ENDROOT
BRANCH   6  11
ATOM     11  S   UNL     1     -11.930 -15.321  28.153  1.00  0.00    -0.090 SA
BRANCH  11  12
ATOM     12  C   UNL     1     -13.600 -15.051  28.723  1.00  0.00    +0.012 A 
ATOM     13  C   UNL     1     -14.182 -15.874  29.694  1.00  0.00    +0.015 A 
ATOM     14  C   UNL     1     -14.352 -14.011  28.168  1.00  0.00    +0.015 A 
ATOM     15  C   UNL     1     -15.494 -15.645  30.117  1.00  0.00    +0.001 A 
ATOM     16  C   UNL     1     -15.664 -13.783  28.591  1.00  0.00    +0.001 A 
ATOM     17  C   UNL     1     -16.233 -14.600  29.568  1.00  0.00    +0.000 A 
ENDBRANCH  11  12
ENDBRANCH   6  11
BRANCH   7  18
ATOM     18  N   UNL     1     -11.098 -17.713  21.011  1.00  0.00    -0.261 N 
ATOM     19  C   UNL     1      -9.872 -18.264  20.780  1.00  0.00    +0.413 C 
ATOM     20  O   UNL     1      -9.014 -18.600  21.580  1.00  0.00    -0.224 OA
ATOM     21  H   UNL     1     -11.646 -17.512  20.191  1.00  0.00    +0.176 HD
BRANCH  19  22
ATOM     22  O   UNL     1      -9.730 -18.393  19.429  1.00  0.00    -0.453 OA
ATOM     23  C   UNL     1      -9.532 -19.740  18.993  1.00  0.00    +0.284 C 
ENDBRANCH  19  22
ENDBRANCH   7  18
TORSDOF 4
ENDMDL
MODEL 5
REMARK VINA RESULT:    -6.511      6.061      6.952
REMARK INTER + INTRA:          -8.801
REMARK INTER:                  -8.136
REMARK INTRA:                  -0.665
REMARK UNBOUND:                -0.768
REMARK SMILES COC(=O)Nc1nc2ccc(Sc3ccccc3)cc2[nH]1
REMARK SMILES IDX 21 1 7 2 20 3 8 4 19 5 11 6 6 7 9 8 10 9 12 11 13 12 14 13
REMARK SMILES IDX 18 14 15 15 17 16 16 17 5 18 3 19 4 20 2 22 1 23
REMARK H PARENT 21 10 5 21
ROOT
ATOM      1  N   UNL     1     -14.279  -9.203  24.904  1.00  0.00    -0.324 N 
ATOM      2  N   UNL     1     -12.731 -10.371  23.852  1.00  0.00    -0.213 NA
ATOM      3  C   UNL     1     -13.796 -10.085  25.836  1.00  0.00    +0.068 A 
ATOM      4  C   UNL     1     -12.829 -10.805  25.148  1.00  0.00    +0.091 A 
ATOM      5  C   UNL     1     -14.113 -10.309  27.179  1.00  0.00    +0.043 A 
ATOM      6  C   UNL     1     -13.390 -11.315  27.841  1.00  0.00    +0.014 A 
ATOM      7  C   UNL     1     -13.609  -9.407  23.721  1.00  0.00    +0.210 A 
ATOM      8  C   UNL     1     -12.124 -11.815  25.814  1.00  0.00    +0.032 A 
ATOM      9  C   UNL     1     -12.417 -12.063  27.163  1.00  0.00    +0.018 A 
ATOM     10  H   UNL     1     -15.001  -8.519  25.062  1.00  0.00    +0.170 HD
ENDROOT
BRANCH   6  11
ATOM     11  S   UNL     1     -13.717 -11.685  29.561  1.00  0.00    -0.090 SA
BRANCH  11  12
ATOM     12  C   UNL     1     -14.817 -13.085  29.433  1.00  0.00    +0.012 A 
ATOM     13  C   UNL     1     -14.705 -14.183  30.293  1.00  0.00    +0.015 A 
ATOM     14  C   UNL     1     -15.796 -13.097  28.434  1.00  0.00    +0.015 A 
ATOM     15  C   UNL     1     -15.573 -15.269  30.167  1.00  0.00    +0.001 A 
ATOM     16  C   UNL     1     -16.664 -14.184  28.308  1.00  0.00    +0.001 A 
ATOM     17  C   UNL     1     -16.554 -15.269  29.177  1.00  0.00    +0.000 A 
ENDBRANCH  11  12
ENDBRANCH   6  11
BRANCH   7  18
ATOM     18  N   UNL     1     -13.900  -8.651  22.619  1.00  0.00    -0.261 N 
ATOM     19  C   UNL     1     -15.123  -8.087  22.403  1.00  0.00    +0.413 C 
ATOM     20  O   UNL     1     -16.128  -8.138  23.093  1.00  0.00    -0.224 OA
ATOM     21  H   UNL     1     -13.209  -8.478  21.908  1.00  0.00    +0.176 HD
BRANCH  19  22
ATOM     22  O   UNL     1     -15.057  -7.409  21.221  1.00  0.00    -0.453 OA
ATOM     23  C   UNL     1     -16.333  -7.056  20.683  1.00  0.00    +0.284 C 
ENDBRANCH  19  22
ENDBRANCH   7  18
TORSDOF 4
ENDMDL
MODEL 6
REMARK VINA RESULT:    -6.359      8.501     10.731
REMARK INTER + INTRA:          -8.614
REMARK INTER:                  -7.882
REMARK INTRA:                  -0.731
REMARK UNBOUND:                -0.768
REMARK SMILES COC(=O)Nc1nc2ccc(Sc3ccccc3)cc2[nH]1
REMARK SMILES IDX 21 1 7 2 20 3 8 4 19 5 11 6 6 7 9 8 10 9 12 11 13 12 14 13
REMARK SMILES IDX 18 14 15 15 17 16 16 17 5 18 3 19 4 20 2 22 1 23
REMARK H PARENT 21 10 5 21
ROOT
ATOM      1  N   UNL     1     -15.971  -8.756  17.637  1.00  0.00    -0.324 N 
ATOM      2  N   UNL     1     -16.425  -8.951  19.788  1.00  0.00    -0.213 NA
ATOM      3  C   UNL     1     -15.980 -10.105  17.883  1.00  0.00    +0.068 A 
ATOM      4  C   UNL     1     -16.264 -10.196  19.240  1.00  0.00    +0.091 A 
ATOM      5  C   UNL     1     -15.768 -11.217  17.065  1.00  0.00    +0.043 A 
ATOM      6  C   UNL     1     -15.865 -12.480  17.672  1.00  0.00    +0.014 A 
ATOM      7  C   UNL     1     -16.246  -8.095  18.810  1.00  0.00    +0.210 A 
ATOM      8  C   UNL     1     -16.345 -11.460  19.838  1.00  0.00    +0.032 A 
ATOM      9  C   UNL     1     -16.139 -12.596  19.042  1.00  0.00    +0.018 A 
ATOM     10  H   UNL     1     -15.797  -8.323  16.744  1.00  0.00    +0.170 HD
ENDROOT
BRANCH   6  11
ATOM     11  S   UNL     1     -15.610 -13.969  16.715  1.00  0.00    -0.090 SA
BRANCH  11  12
ATOM     12  C   UNL     1     -14.541 -14.916  17.786  1.00  0.00    +0.012 A 
ATOM     13  C   UNL     1     -13.290 -14.431  18.184  1.00  0.00    +0.015 A 
ATOM     14  C   UNL     1     -14.951 -16.182  18.216  1.00  0.00    +0.015 A 
ATOM     15  C   UNL     1     -12.470 -15.195  19.017  1.00  0.00    +0.001 A 
ATOM     16  C   UNL     1     -14.130 -16.946  19.049  1.00  0.00    +0.001 A 
ATOM     17  C   UNL     1     -12.890 -16.450  19.451  1.00  0.00    +0.000 A 
ENDBRANCH  11  12
ENDBRANCH   6  11
BRANCH   7  18
ATOM     18  N   UNL     1     -16.300  -6.730  18.842  1.00  0.00    -0.261 N 
ATOM     19  C   UNL     1     -15.276  -5.933  18.419  1.00  0.00    +0.413 C 
ATOM     20  O   UNL     1     -14.190  -6.250  17.963  1.00  0.00    -0.224 OA
ATOM     21  H   UNL     1     -17.112  -6.246  19.187  1.00  0.00    +0.176 HD
BRANCH  19  22
ATOM     22  O   UNL     1     -15.669  -4.637  18.591  1.00  0.00    -0.453 OA
ATOM     23  C   UNL     1     -15.289  -3.769  17.522  1.00  0.00    +0.284 C 
ENDBRANCH  19  22
ENDBRANCH   7  18
TORSDOF 4
ENDMDL
MODEL 7
REMARK VINA RESULT:    -6.156      5.652      6.761
REMARK INTER + INTRA:          -8.363
REMARK INTER:                  -7.539
REMARK INTRA:                  -0.824
REMARK UNBOUND:                -0.768
REMARK SMILES COC(=O)Nc1nc2ccc(Sc3ccccc3)cc2[nH]1
REMARK SMILES IDX 21 1 7 2 20 3 8 4 19 5 11 6 6 7 9 8 10 9 12 11 13 12 14 13
REMARK SMILES IDX 18 14 15 15 17 16 16 17 5 18 3 19 4 20 2 22 1 23
REMARK H PARENT 21 10 5 21
ROOT
ATOM      1  N   UNL     1     -14.371 -10.628  22.158  1.00  0.00    -0.324 N 
ATOM      2  N   UNL     1     -14.698  -8.523  21.586  1.00  0.00    -0.213 NA
ATOM      3  C   UNL     1     -13.996  -9.894  23.254  1.00  0.00    +0.068 A 
ATOM      4  C   UNL     1     -14.209  -8.578  22.865  1.00  0.00    +0.091 A 
ATOM      5  C   UNL     1     -13.502 -10.255  24.510  1.00  0.00    +0.043 A 
ATOM      6  C   UNL     1     -13.227  -9.210  25.408  1.00  0.00    +0.014 A 
ATOM      7  C   UNL     1     -14.790  -9.764  21.175  1.00  0.00    +0.210 A 
ATOM      8  C   UNL     1     -13.918  -7.543  23.763  1.00  0.00    +0.032 A 
ATOM      9  C   UNL     1     -13.424  -7.873  25.033  1.00  0.00    +0.018 A 
ATOM     10  H   UNL     1     -14.348 -11.633  22.089  1.00  0.00    +0.170 HD
ENDROOT
BRANCH   6  11
ATOM     11  S   UNL     1     -12.590  -9.562  27.042  1.00  0.00    -0.090 SA
BRANCH  11  12
ATOM     12  C   UNL     1     -13.555 -10.987  27.513  1.00  0.00    +0.012 A 
ATOM     13  C   UNL     1     -14.875 -10.859  27.962  1.00  0.00    +0.015 A 
ATOM     14  C   UNL     1     -12.972 -12.257  27.458  1.00  0.00    +0.015 A 
ATOM     15  C   UNL     1     -15.606 -11.990  28.332  1.00  0.00    +0.001 A 
ATOM     16  C   UNL     1     -13.704 -13.388  27.828  1.00  0.00    +0.001 A 
ATOM     17  C   UNL     1     -15.022 -13.253  28.262  1.00  0.00    +0.000 A 
ENDBRANCH  11  12
ENDBRANCH   6  11
BRANCH   7  18
ATOM     18  N   UNL     1     -15.223 -10.241  19.969  1.00  0.00    -0.261 N 
ATOM     19  C   UNL     1     -16.131 -11.252  19.850  1.00  0.00    +0.413 C 
ATOM     20  O   UNL     1     -16.697 -11.888  20.725  1.00  0.00    -0.224 OA
ATOM     21  H   UNL     1     -14.882  -9.859  19.103  1.00  0.00    +0.176 HD
BRANCH  19  22
ATOM     22  O   UNL     1     -16.331 -11.467  18.517  1.00  0.00    -0.453 OA
ATOM     23  C   UNL     1     -15.871 -10.401  17.683  1.00  0.00    +0.284 C 
ENDBRANCH  19  22
ENDBRANCH   7  18
TORSDOF 4
ENDMDL
MODEL 8
REMARK VINA RESULT:    -6.099      8.485     11.616
REMARK INTER + INTRA:          -8.293
REMARK INTER:                  -7.567
REMARK INTRA:                  -0.726
REMARK UNBOUND:                -0.768
REMARK SMILES COC(=O)Nc1nc2ccc(Sc3ccccc3)cc2[nH]1
REMARK SMILES IDX 21 1 7 2 20 3 8 4 19 5 11 6 6 7 9 8 10 9 12 11 13 12 14 13
REMARK SMILES IDX 18 14 15 15 17 16 16 17 5 18 3 19 4 20 2 22 1 23
REMARK H PARENT 21 10 5 21
ROOT
ATOM      1  N   UNL     1     -16.020 -10.295  18.354  1.00  0.00    -0.324 N 
ATOM      2  N   UNL     1     -16.037 -11.917  19.850  1.00  0.00    -0.213 NA
ATOM      3  C   UNL     1     -16.025 -11.456  17.626  1.00  0.00    +0.068 A 
ATOM      4  C   UNL     1     -16.033 -12.456  18.590  1.00  0.00    +0.091 A 
ATOM      5  C   UNL     1     -16.020 -11.712  16.252  1.00  0.00    +0.043 A 
ATOM      6  C   UNL     1     -16.036 -13.060  15.857  1.00  0.00    +0.014 A 
ATOM      7  C   UNL     1     -16.030 -10.615  19.690  1.00  0.00    +0.210 A 
ATOM      8  C   UNL     1     -16.035 -13.797  18.185  1.00  0.00    +0.032 A 
ATOM      9  C   UNL     1     -16.033 -14.086  16.813  1.00  0.00    +0.018 A 
ATOM     10  H   UNL     1     -16.014  -9.363  17.972  1.00  0.00    +0.170 HD
ENDROOT
BRANCH   6  11
ATOM     11  S   UNL     1     -16.031 -13.497  14.123  1.00  0.00    -0.090 SA
BRANCH  11  12
ATOM     12  C   UNL     1     -17.479 -14.533  14.000  1.00  0.00    +0.012 A 
ATOM     13  C   UNL     1     -18.768 -14.004  14.132  1.00  0.00    +0.015 A 
ATOM     14  C   UNL     1     -17.322 -15.908  13.793  1.00  0.00    +0.015 A 
ATOM     15  C   UNL     1     -19.885 -14.838  14.039  1.00  0.00    +0.001 A 
ATOM     16  C   UNL     1     -18.440 -16.741  13.701  1.00  0.00    +0.001 A 
ATOM     17  C   UNL     1     -19.721 -16.204  13.822  1.00  0.00    +0.000 A 
ENDBRANCH  11  12
ENDBRANCH   6  11
BRANCH   7  18
ATOM     18  N   UNL     1     -16.029  -9.633  20.641  1.00  0.00    -0.261 N 
ATOM     19  C   UNL     1     -16.404  -8.346  20.384  1.00  0.00    +0.413 C 
ATOM     20  O   UNL     1     -16.784  -7.849  19.336  1.00  0.00    -0.224 OA
ATOM     21  H   UNL     1     -15.746  -9.822  21.588  1.00  0.00    +0.176 HD
BRANCH  19  22
ATOM     22  O   UNL     1     -16.283  -7.645  21.548  1.00  0.00    -0.453 OA
ATOM     23  C   UNL     1     -15.223  -8.101  22.392  1.00  0.00    +0.284 C 
ENDBRANCH  19  22
ENDBRANCH   7  18
TORSDOF 4
ENDMDL
MODEL 9
REMARK VINA RESULT:    -6.096      6.824      8.789
REMARK INTER + INTRA:          -8.289
REMARK INTER:                  -7.495
REMARK INTRA:                  -0.795
REMARK UNBOUND:                -0.768
REMARK SMILES COC(=O)Nc1nc2ccc(Sc3ccccc3)cc2[nH]1
REMARK SMILES IDX 21 1 7 2 20 3 8 4 19 5 11 6 6 7 9 8 10 9 12 11 13 12 14 13
REMARK SMILES IDX 18 14 15 15 17 16 16 17 5 18 3 19 4 20 2 22 1 23
REMARK H PARENT 21 10 5 21
ROOT
ATOM      1  N   UNL     1     -14.483 -10.838  26.849  1.00  0.00    -0.324 N 
ATOM      2  N   UNL     1     -12.553 -11.903  26.738  1.00  0.00    -0.213 NA
ATOM      3  C   UNL     1     -13.779 -10.206  25.857  1.00  0.00    +0.068 A 
ATOM      4  C   UNL     1     -12.573 -10.893  25.811  1.00  0.00    +0.091 A 
ATOM      5  C   UNL     1     -14.082  -9.126  25.024  1.00  0.00    +0.043 A 
ATOM      6  C   UNL     1     -13.099  -8.747  24.095  1.00  0.00    +0.014 A 
ATOM      7  C   UNL     1     -13.710 -11.856  27.353  1.00  0.00    +0.210 A 
ATOM      8  C   UNL     1     -11.594 -10.497  24.891  1.00  0.00    +0.032 A 
ATOM      9  C   UNL     1     -11.869  -9.418  24.038  1.00  0.00    +0.018 A 
ATOM     10  H   UNL     1     -15.413 -10.599  27.154  1.00  0.00    +0.170 HD
ENDROOT
BRANCH   6  11
ATOM     11  S   UNL     1     -13.384  -7.376  22.981  1.00  0.00    -0.090 SA
BRANCH  11  12
ATOM     12  C   UNL     1     -14.615  -8.049  21.878  1.00  0.00    +0.012 A 
ATOM     13  C   UNL     1     -15.851  -7.420  21.692  1.00  0.00    +0.015 A 
ATOM     14  C   UNL     1     -14.348  -9.244  21.203  1.00  0.00    +0.015 A 
ATOM     15  C   UNL     1     -16.800  -7.971  20.828  1.00  0.00    +0.001 A 
ATOM     16  C   UNL     1     -15.298  -9.796  20.339  1.00  0.00    +0.001 A 
ATOM     17  C   UNL     1     -16.522  -9.157  20.150  1.00  0.00    +0.000 A 
ENDBRANCH  11  12
ENDBRANCH   6  11
BRANCH   7  18
ATOM     18  N   UNL     1     -14.180 -12.652  28.361  1.00  0.00    -0.261 N 
ATOM     19  C   UNL     1     -15.498 -12.974  28.505  1.00  0.00    +0.413 C 
ATOM     20  O   UNL     1     -16.451 -12.642  27.819  1.00  0.00    -0.224 OA
ATOM     21  H   UNL     1     -13.560 -13.041  29.053  1.00  0.00    +0.176 HD
BRANCH  19  22
ATOM     22  O   UNL     1     -15.606 -13.776  29.603  1.00  0.00    -0.453 OA
ATOM     23  C   UNL     1     -16.418 -14.933  29.398  1.00  0.00    +0.284 C 
ENDBRANCH  19  22
ENDBRANCH   7  18
TORSDOF 4
ENDMDL
