MODEL 1
REMARK VINA RESULT:    -8.374      0.000      0.000
REMARK INTER + INTRA:         -15.100
REMARK INTER:                 -13.759
REMARK INTRA:                  -1.341
REMARK UNBOUND:                -1.341
REMARK SMILES CC[C@@H](C)n1ncn(-c2ccc(N3CCN(c4ccc(OC[C@H]5CO[C@](Cn6cncn6)(c6ccc(Cl)cc6Cl)O5)cc4)CC3)cc2)c1=O
REMARK SMILES IDX 17 1 18 2 43 3 20 4 19 5 42 6 21 7 22 8 23 9 26 10 41 11
REMARK SMILES IDX 25 12 24 13 33 14 39 15 38 16 34 17 36 18 35 19 40 20 37 21
REMARK SMILES IDX 27 22 28 23 32 24 29 25 31 26 30 27 16 28 15 29 44 30 14 31
REMARK SMILES IDX 45 32 13 33 12 34 11 35 46 36 10 37 47 38 9 39 8 40 48 41
REMARK SMILES IDX 7 42 49 43 5 44 6 45 3 46 4 47 2 48 1 49
REMARK H PARENT
ROOT
ATOM      1  C   UNL     1      13.078  70.683  17.882  1.00  0.00    +0.037 A 
ATOM      2  C   UNL     1      13.347  69.345  18.216  1.00  0.00    +0.030 A 
ATOM      3  C   UNL     1      13.864  71.234  16.860  1.00  0.00    +0.030 A 
ATOM      4  C   UNL     1      15.099  69.166  16.553  1.00  0.00    +0.119 A 
ATOM      5  C   UNL     1      14.339  68.593  17.566  1.00  0.00    +0.048 A 
ATOM      6  C   UNL     1      14.855  70.490  16.204  1.00  0.00    +0.048 A 
ENDROOT
BRANCH   4   7
ATOM      7  O   UNL     1      16.090  68.555  15.839  1.00  0.00    -0.491 OA
BRANCH   7   8
ATOM      8  C   UNL     1      17.076  69.400  15.238  1.00  0.00    +0.264 C 
BRANCH   8   9
ATOM      9  C   UNL     1      18.306  69.410  16.138  1.00  0.00    +0.185 C 
ATOM     10  C   UNL     1      18.978  69.224  18.316  1.00  0.00    +0.217 C 
ATOM     11  O   UNL     1      18.076  68.666  17.344  1.00  0.00    -0.335 OA
ATOM     12  O   UNL     1      19.422  70.512  17.829  1.00  0.00    -0.341 OA
ATOM     13  C   UNL     1      18.645  70.779  16.661  1.00  0.00    +0.200 C 
BRANCH  10  14
ATOM     14  C   UNL     1      20.197  68.301  18.468  1.00  0.00    +0.032 A 
ATOM     15  C   UNL     1      21.356  68.658  19.190  1.00  0.00    +0.051 A 
ATOM     16  C   UNL     1      22.441  67.779  19.298  1.00  0.00    +0.041 A 
ATOM     17  C   UNL     1      20.191  67.031  17.844  1.00  0.00    +0.012 A 
ATOM     18  C   UNL     1      22.394  66.533  18.683  1.00  0.00    +0.042 A 
ATOM     19  C   UNL     1      21.275  66.157  17.953  1.00  0.00    +0.021 A 
ATOM     20 Cl   UNL     1      21.549  70.194  19.966  1.00  0.00    -0.084 Cl
ATOM     21 Cl   UNL     1      23.729  65.459  18.818  1.00  0.00    -0.084 Cl
ENDBRANCH  10  14
BRANCH  10  22
ATOM     22  C   UNL     1      18.281  69.399  19.680  1.00  0.00    +0.217 C 
BRANCH  22  23
ATOM     23  N   UNL     1      17.719  70.720  19.860  1.00  0.00    -0.247 N 
ATOM     24  N   UNL     1      16.502  71.038  19.377  1.00  0.00    -0.160 NA
ATOM     25  C   UNL     1      18.303  71.801  20.451  1.00  0.00    +0.219 A 
ATOM     26  C   UNL     1      16.402  72.321  19.735  1.00  0.00    +0.246 A 
ATOM     27  N   UNL     1      17.479  72.822  20.407  1.00  0.00    -0.224 NA
ENDBRANCH  22  23
ENDBRANCH  10  22
ENDBRANCH   8   9
ENDBRANCH   7   8
ENDBRANCH   4   7
BRANCH   1  28
ATOM     28  N   UNL     1      12.100  71.412  18.536  1.00  0.00    -0.368 N 
ATOM     29  C   UNL     1      11.718  72.766  18.101  1.00  0.00    +0.138 C 
ATOM     30  C   UNL     1      11.268  70.803  19.590  1.00  0.00    +0.138 C 
ATOM     31  C   UNL     1      11.063  73.577  19.245  1.00  0.00    +0.138 C 
ATOM     32  C   UNL     1       9.852  71.424  19.656  1.00  0.00    +0.138 C 
ATOM     33  N   UNL     1       9.895  72.887  19.822  1.00  0.00    -0.368 N 
BRANCH  33  34
ATOM     34  C   UNL     1       8.845  73.590  20.384  1.00  0.00    +0.037 A 
ATOM     35  C   UNL     1       8.060  73.053  21.411  1.00  0.00    +0.028 A 
ATOM     36  C   UNL     1       8.494  74.876  19.959  1.00  0.00    +0.028 A 
ATOM     37  C   UNL     1       6.986  73.759  21.984  1.00  0.00    +0.029 A 
ATOM     38  C   UNL     1       7.424  75.590  20.528  1.00  0.00    +0.029 A 
ATOM     39  C   UNL     1       6.647  75.045  21.552  1.00  0.00    +0.052 A 
BRANCH  39  40
ATOM     40  N   UNL     1       5.567  75.757  22.129  1.00  0.00    -0.250 N 
ATOM     41  C   UNL     1       5.478  77.118  22.376  1.00  0.00    +0.350 C 
ATOM     42  C   UNL     1       4.379  75.258  22.539  1.00  0.00    +0.231 C 
ATOM     43  O   UNL     1       6.278  78.010  22.139  1.00  0.00    -0.246 OA
ATOM     44  N   UNL     1       4.215  77.302  22.967  1.00  0.00    -0.210 N 
ATOM     45  N   UNL     1       3.537  76.112  23.029  1.00  0.00    -0.158 NA
BRANCH  44  46
ATOM     46  C   UNL     1       3.604  78.580  23.300  1.00  0.00    +0.110 C 
ATOM     47  C   UNL     1       4.138  79.103  24.634  1.00  0.00    +0.033 C 
BRANCH  46  48
ATOM     48  C   UNL     1       2.068  78.489  23.331  1.00  0.00    +0.024 C 
ATOM     49  C   UNL     1       1.424  79.566  24.194  1.00  0.00    +0.006 C 
ENDBRANCH  46  48
ENDBRANCH  44  46
ENDBRANCH  39  40
ENDBRANCH  33  34
ENDBRANCH   1  28
TORSDOF 11
ENDMDL
MODEL 2
REMARK VINA RESULT:    -8.161      1.862      3.312
REMARK INTER + INTRA:         -14.750
REMARK INTER:                 -13.386
REMARK INTRA:                  -1.364
REMARK UNBOUND:                -1.341
REMARK SMILES CC[C@@H](C)n1ncn(-c2ccc(N3CCN(c4ccc(OC[C@H]5CO[C@](Cn6cncn6)(c6ccc(Cl)cc6Cl)O5)cc4)CC3)cc2)c1=O
REMARK SMILES IDX 17 1 18 2 43 3 20 4 19 5 42 6 21 7 22 8 23 9 26 10 41 11
REMARK SMILES IDX 25 12 24 13 33 14 39 15 38 16 34 17 36 18 35 19 40 20 37 21
REMARK SMILES IDX 27 22 28 23 32 24 29 25 31 26 30 27 16 28 15 29 44 30 14 31
REMARK SMILES IDX 45 32 13 33 12 34 11 35 46 36 10 37 47 38 9 39 8 40 48 41
REMARK SMILES IDX 7 42 49 43 5 44 6 45 3 46 4 47 2 48 1 49
REMARK H PARENT
ROOT
ATOM      1  C   UNL     1      10.118  72.164  19.152  1.00  0.00    +0.037 A 
ATOM      2  C   UNL     1      10.784  72.654  18.016  1.00  0.00    +0.030 A 
ATOM      3  C   UNL     1      10.458  70.864  19.554  1.00  0.00    +0.030 A 
ATOM      4  C   UNL     1      12.059  70.612  17.746  1.00  0.00    +0.119 A 
ATOM      5  C   UNL     1      11.740  71.897  17.320  1.00  0.00    +0.048 A 
ATOM      6  C   UNL     1      11.412  70.102  18.867  1.00  0.00    +0.048 A 
ENDROOT
BRANCH   4   7
ATOM      7  O   UNL     1      12.964  69.769  17.169  1.00  0.00    -0.491 OA
BRANCH   7   8
ATOM      8  C   UNL     1      13.676  68.882  18.038  1.00  0.00    +0.264 C 
BRANCH   8   9
ATOM      9  C   UNL     1      15.133  68.848  17.592  1.00  0.00    +0.185 C 
ATOM     10  C   UNL     1      17.130  69.944  17.790  1.00  0.00    +0.217 C 
ATOM     11  O   UNL     1      15.985  69.505  18.542  1.00  0.00    -0.335 OA
ATOM     12  O   UNL     1      16.783  69.918  16.387  1.00  0.00    -0.341 OA
ATOM     13  C   UNL     1      15.385  69.634  16.333  1.00  0.00    +0.200 C 
BRANCH  10  14
ATOM     14  C   UNL     1      18.299  68.975  18.033  1.00  0.00    +0.032 A 
ATOM     15  C   UNL     1      18.838  68.713  19.310  1.00  0.00    +0.051 A 
ATOM     16  C   UNL     1      19.904  67.820  19.477  1.00  0.00    +0.041 A 
ATOM     17  C   UNL     1      18.895  68.315  16.933  1.00  0.00    +0.012 A 
ATOM     18  C   UNL     1      20.457  67.179  18.374  1.00  0.00    +0.042 A 
ATOM     19  C   UNL     1      19.959  67.425  17.102  1.00  0.00    +0.021 A 
ATOM     20 Cl   UNL     1      18.262  69.478  20.753  1.00  0.00    -0.084 Cl
ATOM     21 Cl   UNL     1      21.766  66.085  18.585  1.00  0.00    -0.084 Cl
ENDBRANCH  10  14
BRANCH  10  22
ATOM     22  C   UNL     1      17.544  71.373  18.196  1.00  0.00    +0.217 C 
BRANCH  22  23
ATOM     23  N   UNL     1      16.521  72.060  18.956  1.00  0.00    -0.247 N 
ATOM     24  N   UNL     1      15.352  72.422  18.392  1.00  0.00    -0.160 NA
ATOM     25  C   UNL     1      16.584  72.476  20.252  1.00  0.00    +0.219 A 
ATOM     26  C   UNL     1      14.744  73.031  19.414  1.00  0.00    +0.246 A 
ATOM     27  N   UNL     1      15.460  73.073  20.575  1.00  0.00    -0.224 NA
ENDBRANCH  22  23
ENDBRANCH  10  22
ENDBRANCH   8   9
ENDBRANCH   7   8
ENDBRANCH   4   7
BRANCH   1  28
ATOM     28  N   UNL     1       9.175  72.922  19.825  1.00  0.00    -0.368 N 
ATOM     29  C   UNL     1       9.310  74.381  19.971  1.00  0.00    +0.138 C 
ATOM     30  C   UNL     1       7.901  72.333  20.276  1.00  0.00    +0.138 C 
ATOM     31  C   UNL     1       8.502  74.919  21.177  1.00  0.00    +0.138 C 
ATOM     32  C   UNL     1       6.747  73.366  20.293  1.00  0.00    +0.138 C 
ATOM     33  N   UNL     1       7.076  74.551  21.103  1.00  0.00    -0.368 N 
BRANCH  33  34
ATOM     34  C   UNL     1       6.095  75.345  21.668  1.00  0.00    +0.037 A 
ATOM     35  C   UNL     1       4.999  74.798  22.345  1.00  0.00    +0.028 A 
ATOM     36  C   UNL     1       6.129  76.742  21.593  1.00  0.00    +0.028 A 
ATOM     37  C   UNL     1       3.994  75.598  22.918  1.00  0.00    +0.029 A 
ATOM     38  C   UNL     1       5.129  77.549  22.164  1.00  0.00    +0.029 A 
ATOM     39  C   UNL     1       4.039  76.994  22.838  1.00  0.00    +0.052 A 
BRANCH  39  40
ATOM     40  N   UNL     1       3.028  77.801  23.415  1.00  0.00    -0.250 N 
ATOM     41  C   UNL     1       3.071  78.494  24.615  1.00  0.00    +0.350 C 
ATOM     42  C   UNL     1       1.811  78.085  22.901  1.00  0.00    +0.231 C 
ATOM     43  O   UNL     1       3.977  78.593  25.429  1.00  0.00    -0.246 OA
ATOM     44  N   UNL     1       1.816  79.118  24.723  1.00  0.00    -0.210 N 
ATOM     45  N   UNL     1       1.055  78.861  23.612  1.00  0.00    -0.158 NA
BRANCH  44  46
ATOM     46  C   UNL     1       1.415  80.060  25.757  1.00  0.00    +0.110 C 
ATOM     47  C   UNL     1       2.084  81.418  25.540  1.00  0.00    +0.033 C 
BRANCH  46  48
ATOM     48  C   UNL     1       1.720  79.527  27.167  1.00  0.00    +0.024 C 
ATOM     49  C   UNL     1       2.498  80.516  28.025  1.00  0.00    +0.006 C 
ENDBRANCH  46  48
ENDBRANCH  44  46
ENDBRANCH  39  40
ENDBRANCH  33  34
ENDBRANCH   1  28
TORSDOF 11
ENDMDL
MODEL 3
REMARK VINA RESULT:    -8.130      1.344      1.728
REMARK INTER + INTRA:         -14.699
REMARK INTER:                 -13.491
REMARK INTRA:                  -1.208
REMARK UNBOUND:                -1.341
REMARK SMILES CC[C@@H](C)n1ncn(-c2ccc(N3CCN(c4ccc(OC[C@H]5CO[C@](Cn6cncn6)(c6ccc(Cl)cc6Cl)O5)cc4)CC3)cc2)c1=O
REMARK SMILES IDX 17 1 18 2 43 3 20 4 19 5 42 6 21 7 22 8 23 9 26 10 41 11
REMARK SMILES IDX 25 12 24 13 33 14 39 15 38 16 34 17 36 18 35 19 40 20 37 21
REMARK SMILES IDX 27 22 28 23 32 24 29 25 31 26 30 27 16 28 15 29 44 30 14 31
REMARK SMILES IDX 45 32 13 33 12 34 11 35 46 36 10 37 47 38 9 39 8 40 48 41
REMARK SMILES IDX 7 42 49 43 5 44 6 45 3 46 4 47 2 48 1 49
REMARK H PARENT
ROOT
ATOM      1  C   UNL     1      13.283  70.644  18.267  1.00  0.00    +0.037 A 
ATOM      2  C   UNL     1      13.558  69.326  18.667  1.00  0.00    +0.030 A 
ATOM      3  C   UNL     1      14.207  71.229  17.389  1.00  0.00    +0.030 A 
ATOM      4  C   UNL     1      15.583  69.229  17.341  1.00  0.00    +0.119 A 
ATOM      5  C   UNL     1      14.688  68.624  18.216  1.00  0.00    +0.048 A 
ATOM      6  C   UNL     1      15.335  70.535  16.931  1.00  0.00    +0.048 A 
ENDROOT
BRANCH   4   7
ATOM      7  O   UNL     1      16.715  68.668  16.824  1.00  0.00    -0.491 OA
BRANCH   7   8
ATOM      8  C   UNL     1      17.663  69.552  16.218  1.00  0.00    +0.264 C 
BRANCH   8   9
ATOM      9  C   UNL     1      18.734  69.882  17.253  1.00  0.00    +0.185 C 
ATOM     10  C   UNL     1      19.195  69.812  19.491  1.00  0.00    +0.217 C 
ATOM     11  O   UNL     1      18.604  69.055  18.419  1.00  0.00    -0.335 OA
ATOM     12  O   UNL     1      19.293  71.191  19.067  1.00  0.00    -0.341 OA
ATOM     13  C   UNL     1      18.600  71.269  17.821  1.00  0.00    +0.200 C 
BRANCH  10  14
ATOM     14  C   UNL     1      20.608  69.276  19.773  1.00  0.00    +0.032 A 
ATOM     15  C   UNL     1      20.868  67.950  20.183  1.00  0.00    +0.051 A 
ATOM     16  C   UNL     1      22.175  67.511  20.427  1.00  0.00    +0.041 A 
ATOM     17  C   UNL     1      21.719  70.141  19.643  1.00  0.00    +0.012 A 
ATOM     18  C   UNL     1      23.245  68.386  20.276  1.00  0.00    +0.042 A 
ATOM     19  C   UNL     1      23.022  69.701  19.888  1.00  0.00    +0.021 A 
ATOM     20 Cl   UNL     1      19.618  66.781  20.442  1.00  0.00    -0.084 Cl
ATOM     21 Cl   UNL     1      24.847  67.842  20.578  1.00  0.00    -0.084 Cl
ENDBRANCH  10  14
BRANCH  10  22
ATOM     22  C   UNL     1      18.337  69.722  20.769  1.00  0.00    +0.217 C 
BRANCH  22  23
ATOM     23  N   UNL     1      18.376  70.934  21.559  1.00  0.00    -0.247 N 
ATOM     24  N   UNL     1      17.453  71.904  21.404  1.00  0.00    -0.160 NA
ATOM     25  C   UNL     1      19.312  71.299  22.479  1.00  0.00    +0.219 A 
ATOM     26  C   UNL     1      17.878  72.815  22.283  1.00  0.00    +0.246 A 
ATOM     27  N   UNL     1      19.007  72.476  22.972  1.00  0.00    -0.224 NA
ENDBRANCH  22  23
ENDBRANCH  10  22
ENDBRANCH   8   9
ENDBRANCH   7   8
ENDBRANCH   4   7
BRANCH   1  28
ATOM     28  N   UNL     1      12.167  71.324  18.725  1.00  0.00    -0.368 N 
ATOM     29  C   UNL     1      11.289  70.765  19.767  1.00  0.00    +0.138 C 
ATOM     30  C   UNL     1      11.900  72.716  18.320  1.00  0.00    +0.138 C 
ATOM     31  C   UNL     1       9.871  71.382  19.720  1.00  0.00    +0.138 C 
ATOM     32  C   UNL     1      11.149  73.515  19.413  1.00  0.00    +0.138 C 
ATOM     33  N   UNL     1       9.897  72.853  19.820  1.00  0.00    -0.368 N 
BRANCH  33  34
ATOM     34  C   UNL     1       8.845  73.558  20.376  1.00  0.00    +0.037 A 
ATOM     35  C   UNL     1       8.047  73.019  21.392  1.00  0.00    +0.028 A 
ATOM     36  C   UNL     1       8.505  74.849  19.955  1.00  0.00    +0.028 A 
ATOM     37  C   UNL     1       6.972  73.727  21.959  1.00  0.00    +0.029 A 
ATOM     38  C   UNL     1       7.434  75.564  20.518  1.00  0.00    +0.029 A 
ATOM     39  C   UNL     1       6.643  75.018  21.532  1.00  0.00    +0.052 A 
BRANCH  39  40
ATOM     40  N   UNL     1       5.562  75.733  22.102  1.00  0.00    -0.250 N 
ATOM     41  C   UNL     1       5.467  77.096  22.333  1.00  0.00    +0.350 C 
ATOM     42  C   UNL     1       4.377  75.233  22.521  1.00  0.00    +0.231 C 
ATOM     43  O   UNL     1       6.264  77.988  22.084  1.00  0.00    -0.246 OA
ATOM     44  N   UNL     1       4.205  77.282  22.924  1.00  0.00    -0.210 N 
ATOM     45  N   UNL     1       3.532  76.090  23.002  1.00  0.00    -0.158 NA
BRANCH  44  46
ATOM     46  C   UNL     1       3.590  78.561  23.244  1.00  0.00    +0.110 C 
ATOM     47  C   UNL     1       4.063  79.063  24.608  1.00  0.00    +0.033 C 
BRANCH  46  48
ATOM     48  C   UNL     1       2.053  78.484  23.200  1.00  0.00    +0.024 C 
ATOM     49  C   UNL     1       1.381  79.366  24.243  1.00  0.00    +0.006 C 
ENDBRANCH  46  48
ENDBRANCH  44  46
ENDBRANCH  39  40
ENDBRANCH  33  34
ENDBRANCH   1  28
TORSDOF 11
ENDMDL
MODEL 4
REMARK VINA RESULT:    -7.900      2.601      3.688
REMARK INTER + INTRA:         -14.322
REMARK INTER:                 -13.172
REMARK INTRA:                  -1.149
REMARK UNBOUND:                -1.341
REMARK SMILES CC[C@@H](C)n1ncn(-c2ccc(N3CCN(c4ccc(OC[C@H]5CO[C@](Cn6cncn6)(c6ccc(Cl)cc6Cl)O5)cc4)CC3)cc2)c1=O
REMARK SMILES IDX 17 1 18 2 43 3 20 4 19 5 42 6 21 7 22 8 23 9 26 10 41 11
REMARK SMILES IDX 25 12 24 13 33 14 39 15 38 16 34 17 36 18 35 19 40 20 37 21
REMARK SMILES IDX 27 22 28 23 32 24 29 25 31 26 30 27 16 28 15 29 44 30 14 31
REMARK SMILES IDX 45 32 13 33 12 34 11 35 46 36 10 37 47 38 9 39 8 40 48 41
REMARK SMILES IDX 7 42 49 43 5 44 6 45 3 46 4 47 2 48 1 49
REMARK H PARENT
ROOT
ATOM      1  C   UNL     1      15.357  71.923  18.633  1.00  0.00    +0.037 A 
ATOM      2  C   UNL     1      16.582  72.390  19.139  1.00  0.00    +0.030 A 
ATOM      3  C   UNL     1      15.433  70.904  17.674  1.00  0.00    +0.030 A 
ATOM      4  C   UNL     1      17.858  70.852  17.771  1.00  0.00    +0.119 A 
ATOM      5  C   UNL     1      17.815  71.867  18.720  1.00  0.00    +0.048 A 
ATOM      6  C   UNL     1      16.660  70.374  17.252  1.00  0.00    +0.048 A 
ENDROOT
BRANCH   4   7
ATOM      7  O   UNL     1      18.981  70.254  17.276  1.00  0.00    -0.491 OA
BRANCH   7   8
ATOM      8  C   UNL     1      18.819  68.974  16.655  1.00  0.00    +0.264 C 
BRANCH   8   9
ATOM      9  C   UNL     1      19.908  68.048  17.184  1.00  0.00    +0.185 C 
ATOM     10  C   UNL     1      21.194  67.601  19.021  1.00  0.00    +0.217 C 
ATOM     11  O   UNL     1      19.857  67.946  18.614  1.00  0.00    -0.335 OA
ATOM     12  O   UNL     1      22.088  67.896  17.923  1.00  0.00    -0.341 OA
ATOM     13  C   UNL     1      21.298  68.574  16.945  1.00  0.00    +0.200 C 
BRANCH  10  14
ATOM     14  C   UNL     1      21.260  66.096  19.327  1.00  0.00    +0.032 A 
ATOM     15  C   UNL     1      20.515  65.480  20.356  1.00  0.00    +0.051 A 
ATOM     16  C   UNL     1      20.612  64.103  20.594  1.00  0.00    +0.041 A 
ATOM     17  C   UNL     1      22.119  65.268  18.567  1.00  0.00    +0.012 A 
ATOM     18  C   UNL     1      21.456  63.318  19.817  1.00  0.00    +0.042 A 
ATOM     19  C   UNL     1      22.214  63.895  18.807  1.00  0.00    +0.021 A 
ATOM     20 Cl   UNL     1      19.460  66.356  21.412  1.00  0.00    -0.084 Cl
ATOM     21 Cl   UNL     1      21.572  61.629  20.115  1.00  0.00    -0.084 Cl
ENDBRANCH  10  14
BRANCH  10  22
ATOM     22  C   UNL     1      21.618  68.407  20.265  1.00  0.00    +0.217 C 
BRANCH  22  23
ATOM     23  N   UNL     1      22.883  67.968  20.815  1.00  0.00    -0.247 N 
ATOM     24  N   UNL     1      22.943  67.252  21.954  1.00  0.00    -0.160 NA
ATOM     25  C   UNL     1      24.133  68.234  20.343  1.00  0.00    +0.219 A 
ATOM     26  C   UNL     1      24.262  67.097  22.099  1.00  0.00    +0.246 A 
ATOM     27  N   UNL     1      25.025  67.672  21.124  1.00  0.00    -0.224 NA
ENDBRANCH  22  23
ENDBRANCH  10  22
ENDBRANCH   8   9
ENDBRANCH   7   8
ENDBRANCH   4   7
BRANCH   1  28
ATOM     28  N   UNL     1      14.148  72.453  19.053  1.00  0.00    -0.368 N 
ATOM     29  C   UNL     1      12.861  71.959  18.536  1.00  0.00    +0.138 C 
ATOM     30  C   UNL     1      14.081  73.415  20.169  1.00  0.00    +0.138 C 
ATOM     31  C   UNL     1      11.735  73.010  18.689  1.00  0.00    +0.138 C 
ATOM     32  C   UNL     1      12.753  73.312  20.957  1.00  0.00    +0.138 C 
ATOM     33  N   UNL     1      11.577  73.462  20.083  1.00  0.00    -0.368 N 
BRANCH  33  34
ATOM     34  C   UNL     1      10.355  73.892  20.569  1.00  0.00    +0.037 A 
ATOM     35  C   UNL     1       9.570  74.823  19.878  1.00  0.00    +0.028 A 
ATOM     36  C   UNL     1       9.830  73.434  21.782  1.00  0.00    +0.028 A 
ATOM     37  C   UNL     1       8.330  75.270  20.368  1.00  0.00    +0.029 A 
ATOM     38  C   UNL     1       8.590  73.874  22.278  1.00  0.00    +0.029 A 
ATOM     39  C   UNL     1       7.814  74.803  21.581  1.00  0.00    +0.052 A 
BRANCH  39  40
ATOM     40  N   UNL     1       6.565  75.251  22.075  1.00  0.00    -0.250 N 
ATOM     41  C   UNL     1       6.093  76.552  22.146  1.00  0.00    +0.350 C 
ATOM     42  C   UNL     1       5.554  74.496  22.561  1.00  0.00    +0.231 C 
ATOM     43  O   UNL     1       6.618  77.595  21.786  1.00  0.00    -0.246 OA
ATOM     44  N   UNL     1       4.815  76.449  22.724  1.00  0.00    -0.210 N 
ATOM     45  N   UNL     1       4.495  75.134  22.947  1.00  0.00    -0.158 NA
BRANCH  44  46
ATOM     46  C   UNL     1       3.864  77.536  22.897  1.00  0.00    +0.110 C 
ATOM     47  C   UNL     1       4.092  78.246  24.232  1.00  0.00    +0.033 C 
BRANCH  46  48
ATOM     48  C   UNL     1       2.409  77.046  22.788  1.00  0.00    +0.024 C 
ATOM     49  C   UNL     1       1.399  78.184  22.724  1.00  0.00    +0.006 C 
ENDBRANCH  46  48
ENDBRANCH  44  46
ENDBRANCH  39  40
ENDBRANCH  33  34
ENDBRANCH   1  28
TORSDOF 11
ENDMDL
MODEL 5
REMARK VINA RESULT:    -7.823      2.142      3.992
REMARK INTER + INTRA:         -14.195
REMARK INTER:                 -12.825
REMARK INTRA:                  -1.370
REMARK UNBOUND:                -1.341
REMARK SMILES CC[C@@H](C)n1ncn(-c2ccc(N3CCN(c4ccc(OC[C@H]5CO[C@](Cn6cncn6)(c6ccc(Cl)cc6Cl)O5)cc4)CC3)cc2)c1=O
REMARK SMILES IDX 17 1 18 2 43 3 20 4 19 5 42 6 21 7 22 8 23 9 26 10 41 11
REMARK SMILES IDX 25 12 24 13 33 14 39 15 38 16 34 17 36 18 35 19 40 20 37 21
REMARK SMILES IDX 27 22 28 23 32 24 29 25 31 26 30 27 16 28 15 29 44 30 14 31
REMARK SMILES IDX 45 32 13 33 12 34 11 35 46 36 10 37 47 38 9 39 8 40 48 41
REMARK SMILES IDX 7 42 49 43 5 44 6 45 3 46 4 47 2 48 1 49
REMARK H PARENT
ROOT
ATOM      1  C   UNL     1      12.480  71.180  17.477  1.00  0.00    +0.037 A 
ATOM      2  C   UNL     1      12.648  69.790  17.582  1.00  0.00    +0.030 A 
ATOM      3  C   UNL     1      13.333  71.839  16.581  1.00  0.00    +0.030 A 
ATOM      4  C   UNL     1      14.436  69.771  15.948  1.00  0.00    +0.119 A 
ATOM      5  C   UNL     1      13.608  69.090  16.833  1.00  0.00    +0.048 A 
ATOM      6  C   UNL     1      14.292  71.149  15.827  1.00  0.00    +0.048 A 
ENDROOT
BRANCH   4   7
ATOM      7  O   UNL     1      15.406  69.221  15.161  1.00  0.00    -0.491 OA
BRANCH   7   8
ATOM      8  C   UNL     1      16.755  69.305  15.633  1.00  0.00    +0.264 C 
BRANCH   8   9
ATOM      9  C   UNL     1      16.717  69.571  17.134  1.00  0.00    +0.185 C 
ATOM     10  C   UNL     1      17.773  70.705  18.815  1.00  0.00    +0.217 C 
ATOM     11  O   UNL     1      17.322  70.833  17.455  1.00  0.00    -0.335 OA
ATOM     12  O   UNL     1      17.809  69.298  19.146  1.00  0.00    -0.341 OA
ATOM     13  C   UNL     1      17.549  68.601  17.928  1.00  0.00    +0.200 C 
BRANCH  10  14
ATOM     14  C   UNL     1      16.777  71.412  19.749  1.00  0.00    +0.032 A 
ATOM     15  C   UNL     1      16.621  71.078  21.112  1.00  0.00    +0.051 A 
ATOM     16  C   UNL     1      15.699  71.753  21.921  1.00  0.00    +0.041 A 
ATOM     17  C   UNL     1      15.949  72.437  19.237  1.00  0.00    +0.012 A 
ATOM     18  C   UNL     1      14.911  72.766  21.386  1.00  0.00    +0.042 A 
ATOM     19  C   UNL     1      15.029  73.109  20.046  1.00  0.00    +0.021 A 
ATOM     20 Cl   UNL     1      17.516  69.812  21.882  1.00  0.00    -0.084 Cl
ATOM     21 Cl   UNL     1      13.779  73.590  22.384  1.00  0.00    -0.084 Cl
ENDBRANCH  10  14
BRANCH  10  22
ATOM     22  C   UNL     1      19.178  71.316  18.990  1.00  0.00    +0.217 C 
BRANCH  22  23
ATOM     23  N   UNL     1      20.168  70.341  19.395  1.00  0.00    -0.247 N 
ATOM     24  N   UNL     1      20.523  70.195  20.687  1.00  0.00    -0.160 NA
ATOM     25  C   UNL     1      20.896  69.511  18.596  1.00  0.00    +0.219 A 
ATOM     26  C   UNL     1      21.452  69.240  20.599  1.00  0.00    +0.246 A 
ATOM     27  N   UNL     1      21.700  68.784  19.336  1.00  0.00    -0.224 NA
ENDBRANCH  22  23
ENDBRANCH  10  22
ENDBRANCH   8   9
ENDBRANCH   7   8
ENDBRANCH   4   7
BRANCH   1  28
ATOM     28  N   UNL     1      11.531  71.856  18.226  1.00  0.00    -0.368 N 
ATOM     29  C   UNL     1      10.473  71.146  18.964  1.00  0.00    +0.138 C 
ATOM     30  C   UNL     1      11.638  73.307  18.467  1.00  0.00    +0.138 C 
ATOM     31  C   UNL     1       9.252  72.056  19.242  1.00  0.00    +0.138 C 
ATOM     32  C   UNL     1      11.026  73.726  19.825  1.00  0.00    +0.138 C 
ATOM     33  N   UNL     1       9.625  73.288  19.960  1.00  0.00    -0.368 N 
BRANCH  33  34
ATOM     34  C   UNL     1       8.738  73.929  20.806  1.00  0.00    +0.037 A 
ATOM     35  C   UNL     1       8.593  73.556  22.147  1.00  0.00    +0.028 A 
ATOM     36  C   UNL     1       7.923  74.982  20.376  1.00  0.00    +0.028 A 
ATOM     37  C   UNL     1       7.689  74.198  23.013  1.00  0.00    +0.029 A 
ATOM     38  C   UNL     1       7.019  75.631  21.234  1.00  0.00    +0.029 A 
ATOM     39  C   UNL     1       6.882  75.251  22.572  1.00  0.00    +0.052 A 
BRANCH  39  40
ATOM     40  N   UNL     1       5.972  75.900  23.442  1.00  0.00    -0.250 N 
ATOM     41  C   UNL     1       6.096  77.148  24.030  1.00  0.00    +0.350 C 
ATOM     42  C   UNL     1       4.772  75.442  23.865  1.00  0.00    +0.231 C 
ATOM     43  O   UNL     1       6.985  77.979  23.921  1.00  0.00    -0.246 OA
ATOM     44  N   UNL     1       4.934  77.307  24.805  1.00  0.00    -0.210 N 
ATOM     45  N   UNL     1       4.107  76.223  24.656  1.00  0.00    -0.158 NA
BRANCH  44  46
ATOM     46  C   UNL     1       4.540  78.510  25.522  1.00  0.00    +0.110 C 
ATOM     47  C   UNL     1       3.596  78.168  26.676  1.00  0.00    +0.033 C 
BRANCH  46  48
ATOM     48  C   UNL     1       3.896  79.549  24.588  1.00  0.00    +0.024 C 
ATOM     49  C   UNL     1       2.393  79.363  24.434  1.00  0.00    +0.006 C 
ENDBRANCH  46  48
ENDBRANCH  44  46
ENDBRANCH  39  40
ENDBRANCH  33  34
ENDBRANCH   1  28
TORSDOF 11
ENDMDL
MODEL 6
REMARK VINA RESULT:    -7.802      2.590      4.365
REMARK INTER + INTRA:         -14.160
REMARK INTER:                 -12.453
REMARK INTRA:                  -1.707
REMARK UNBOUND:                -1.341
REMARK SMILES CC[C@@H](C)n1ncn(-c2ccc(N3CCN(c4ccc(OC[C@H]5CO[C@](Cn6cncn6)(c6ccc(Cl)cc6Cl)O5)cc4)CC3)cc2)c1=O
REMARK SMILES IDX 17 1 18 2 43 3 20 4 19 5 42 6 21 7 22 8 23 9 26 10 41 11
REMARK SMILES IDX 25 12 24 13 33 14 39 15 38 16 34 17 36 18 35 19 40 20 37 21
REMARK SMILES IDX 27 22 28 23 32 24 29 25 31 26 30 27 16 28 15 29 44 30 14 31
REMARK SMILES IDX 45 32 13 33 12 34 11 35 46 36 10 37 47 38 9 39 8 40 48 41
REMARK SMILES IDX 7 42 49 43 5 44 6 45 3 46 4 47 2 48 1 49
REMARK H PARENT
ROOT
ATOM      1  C   UNL     1      16.442  70.057  17.597  1.00  0.00    +0.037 A 
ATOM      2  C   UNL     1      16.796  70.068  16.237  1.00  0.00    +0.030 A 
ATOM      3  C   UNL     1      17.273  69.310  18.445  1.00  0.00    +0.030 A 
ATOM      4  C   UNL     1      18.725  68.652  16.614  1.00  0.00    +0.119 A 
ATOM      5  C   UNL     1      17.918  69.380  15.747  1.00  0.00    +0.048 A 
ATOM      6  C   UNL     1      18.396  68.623  17.965  1.00  0.00    +0.048 A 
ENDROOT
BRANCH   4   7
ATOM      7  O   UNL     1      19.840  67.940  16.277  1.00  0.00    -0.491 OA
BRANCH   7   8
ATOM      8  C   UNL     1      21.073  68.663  16.187  1.00  0.00    +0.264 C 
BRANCH   8   9
ATOM      9  C   UNL     1      22.016  68.129  17.259  1.00  0.00    +0.185 C 
ATOM     10  C   UNL     1      22.137  66.698  19.038  1.00  0.00    +0.217 C 
ATOM     11  O   UNL     1      21.616  66.824  17.703  1.00  0.00    -0.335 OA
ATOM     12  O   UNL     1      22.469  68.022  19.518  1.00  0.00    -0.341 OA
ATOM     13  C   UNL     1      21.978  68.931  18.532  1.00  0.00    +0.200 C 
BRANCH  10  14
ATOM     14  C   UNL     1      23.416  65.845  19.007  1.00  0.00    +0.032 A 
ATOM     15  C   UNL     1      23.474  64.555  18.436  1.00  0.00    +0.051 A 
ATOM     16  C   UNL     1      24.666  63.819  18.433  1.00  0.00    +0.041 A 
ATOM     17  C   UNL     1      24.601  66.346  19.593  1.00  0.00    +0.012 A 
ATOM     18  C   UNL     1      25.816  64.349  19.006  1.00  0.00    +0.042 A 
ATOM     19  C   UNL     1      25.788  65.609  19.590  1.00  0.00    +0.021 A 
ATOM     20 Cl   UNL     1      22.102  63.774  17.728  1.00  0.00    -0.084 Cl
ATOM     21 Cl   UNL     1      27.274  63.440  19.001  1.00  0.00    -0.084 Cl
ENDBRANCH  10  14
BRANCH  10  22
ATOM     22  C   UNL     1      21.099  66.051  19.977  1.00  0.00    +0.217 C 
BRANCH  22  23
ATOM     23  N   UNL     1      21.058  66.673  21.284  1.00  0.00    -0.247 N 
ATOM     24  N   UNL     1      21.969  66.376  22.231  1.00  0.00    -0.160 NA
ATOM     25  C   UNL     1      20.131  67.551  21.759  1.00  0.00    +0.219 A 
ATOM     26  C   UNL     1      21.546  67.132  23.248  1.00  0.00    +0.246 A 
ATOM     27  N   UNL     1      20.431  67.877  22.995  1.00  0.00    -0.224 NA
ENDBRANCH  22  23
ENDBRANCH  10  22
ENDBRANCH   8   9
ENDBRANCH   7   8
ENDBRANCH   4   7
BRANCH   1  28
ATOM     28  N   UNL     1      15.330  70.737  18.064  1.00  0.00    -0.368 N 
ATOM     29  C   UNL     1      14.113  70.032  18.496  1.00  0.00    +0.138 C 
ATOM     30  C   UNL     1      15.373  72.189  18.317  1.00  0.00    +0.138 C 
ATOM     31  C   UNL     1      12.864  70.944  18.435  1.00  0.00    +0.138 C 
ATOM     32  C   UNL     1      14.421  72.616  19.461  1.00  0.00    +0.138 C 
ATOM     33  N   UNL     1      13.035  72.180  19.221  1.00  0.00    -0.368 N 
BRANCH  33  34
ATOM     34  C   UNL     1      11.956  72.825  19.797  1.00  0.00    +0.037 A 
ATOM     35  C   UNL     1      10.898  72.120  20.383  1.00  0.00    +0.028 A 
ATOM     36  C   UNL     1      11.846  74.220  19.824  1.00  0.00    +0.028 A 
ATOM     37  C   UNL     1       9.794  72.769  20.966  1.00  0.00    +0.029 A 
ATOM     38  C   UNL     1      10.748  74.876  20.406  1.00  0.00    +0.029 A 
ATOM     39  C   UNL     1       9.697  74.163  20.989  1.00  0.00    +0.052 A 
BRANCH  39  40
ATOM     40  N   UNL     1       8.587  74.818  21.576  1.00  0.00    -0.250 N 
ATOM     41  C   UNL     1       7.401  75.199  20.968  1.00  0.00    +0.350 C 
ATOM     42  C   UNL     1       8.440  75.188  22.869  1.00  0.00    +0.231 C 
ATOM     43  O   UNL     1       7.029  75.044  19.814  1.00  0.00    -0.246 OA
ATOM     44  N   UNL     1       6.649  75.816  21.983  1.00  0.00    -0.210 N 
ATOM     45  N   UNL     1       7.323  75.767  23.176  1.00  0.00    -0.158 NA
BRANCH  44  46
ATOM     46  C   UNL     1       5.275  76.280  21.868  1.00  0.00    +0.110 C 
ATOM     47  C   UNL     1       5.215  77.808  21.908  1.00  0.00    +0.033 C 
BRANCH  46  48
ATOM     48  C   UNL     1       4.374  75.676  22.960  1.00  0.00    +0.024 C 
ATOM     49  C   UNL     1       3.794  74.322  22.574  1.00  0.00    +0.006 C 
ENDBRANCH  46  48
ENDBRANCH  44  46
ENDBRANCH  39  40
ENDBRANCH  33  34
ENDBRANCH   1  28
TORSDOF 11
ENDMDL
MODEL 7
REMARK VINA RESULT:    -7.720      2.224      3.326
REMARK INTER + INTRA:         -14.026
REMARK INTER:                 -12.114
REMARK INTRA:                  -1.911
REMARK UNBOUND:                -1.341
REMARK SMILES CC[C@@H](C)n1ncn(-c2ccc(N3CCN(c4ccc(OC[C@H]5CO[C@](Cn6cncn6)(c6ccc(Cl)cc6Cl)O5)cc4)CC3)cc2)c1=O
REMARK SMILES IDX 17 1 18 2 43 3 20 4 19 5 42 6 21 7 22 8 23 9 26 10 41 11
REMARK SMILES IDX 25 12 24 13 33 14 39 15 38 16 34 17 36 18 35 19 40 20 37 21
REMARK SMILES IDX 27 22 28 23 32 24 29 25 31 26 30 27 16 28 15 29 44 30 14 31
REMARK SMILES IDX 45 32 13 33 12 34 11 35 46 36 10 37 47 38 9 39 8 40 48 41
REMARK SMILES IDX 7 42 49 43 5 44 6 45 3 46 4 47 2 48 1 49
REMARK H PARENT
ROOT
ATOM      1  C   UNL     1      15.604  71.046  18.665  1.00  0.00    +0.037 A 
ATOM      2  C   UNL     1      16.660  71.951  18.471  1.00  0.00    +0.030 A 
ATOM      3  C   UNL     1      15.893  69.697  18.413  1.00  0.00    +0.030 A 
ATOM      4  C   UNL     1      18.194  70.194  17.819  1.00  0.00    +0.119 A 
ATOM      5  C   UNL     1      17.936  71.539  18.055  1.00  0.00    +0.048 A 
ATOM      6  C   UNL     1      17.165  69.276  18.000  1.00  0.00    +0.048 A 
ENDROOT
BRANCH   4   7
ATOM      7  O   UNL     1      19.381  69.655  17.414  1.00  0.00    -0.491 OA
BRANCH   7   8
ATOM      8  C   UNL     1      19.351  68.321  16.898  1.00  0.00    +0.264 C 
BRANCH   8   9
ATOM      9  C   UNL     1      20.656  67.632  17.283  1.00  0.00    +0.185 C 
ATOM     10  C   UNL     1      22.004  67.137  19.061  1.00  0.00    +0.217 C 
ATOM     11  O   UNL     1      20.627  67.187  18.647  1.00  0.00    -0.335 OA
ATOM     12  O   UNL     1      22.784  67.915  18.124  1.00  0.00    -0.341 OA
ATOM     13  C   UNL     1      21.840  68.560  17.269  1.00  0.00    +0.200 C 
BRANCH  10  14
ATOM     14  C   UNL     1      22.493  65.680  19.027  1.00  0.00    +0.032 A 
ATOM     15  C   UNL     1      21.836  64.625  19.695  1.00  0.00    +0.051 A 
ATOM     16  C   UNL     1      22.323  63.313  19.632  1.00  0.00    +0.041 A 
ATOM     17  C   UNL     1      23.671  65.358  18.314  1.00  0.00    +0.012 A 
ATOM     18  C   UNL     1      23.477  63.031  18.909  1.00  0.00    +0.042 A 
ATOM     19  C   UNL     1      24.156  64.049  18.253  1.00  0.00    +0.021 A 
ATOM     20 Cl   UNL     1      20.414  64.857  20.656  1.00  0.00    -0.084 Cl
ATOM     21 Cl   UNL     1      24.071  61.420  18.837  1.00  0.00    -0.084 Cl
ENDBRANCH  10  14
BRANCH  10  22
ATOM     22  C   UNL     1      22.175  67.712  20.481  1.00  0.00    +0.217 C 
BRANCH  22  23
ATOM     23  N   UNL     1      21.101  68.606  20.859  1.00  0.00    -0.247 N 
ATOM     24  N   UNL     1      21.094  69.897  20.476  1.00  0.00    -0.160 NA
ATOM     25  C   UNL     1      20.028  68.329  21.653  1.00  0.00    +0.219 A 
ATOM     26  C   UNL     1      19.972  70.337  21.053  1.00  0.00    +0.246 A 
ATOM     27  N   UNL     1      19.283  69.404  21.772  1.00  0.00    -0.224 NA
ENDBRANCH  22  23
ENDBRANCH  10  22
ENDBRANCH   8   9
ENDBRANCH   7   8
ENDBRANCH   4   7
BRANCH   1  28
ATOM     28  N   UNL     1      14.349  71.469  19.070  1.00  0.00    -0.368 N 
ATOM     29  C   UNL     1      13.778  71.074  20.368  1.00  0.00    +0.138 C 
ATOM     30  C   UNL     1      13.597  72.477  18.302  1.00  0.00    +0.138 C 
ATOM     31  C   UNL     1      12.233  71.171  20.374  1.00  0.00    +0.138 C 
ATOM     32  C   UNL     1      12.678  73.339  19.201  1.00  0.00    +0.138 C 
ATOM     33  N   UNL     1      11.756  72.515  20.003  1.00  0.00    -0.368 N 
BRANCH  33  34
ATOM     34  C   UNL     1      10.558  73.015  20.481  1.00  0.00    +0.037 A 
ATOM     35  C   UNL     1       9.782  72.312  21.410  1.00  0.00    +0.028 A 
ATOM     36  C   UNL     1      10.041  74.245  20.062  1.00  0.00    +0.028 A 
ATOM     37  C   UNL     1       8.559  72.810  21.897  1.00  0.00    +0.029 A 
ATOM     38  C   UNL     1       8.822  74.752  20.545  1.00  0.00    +0.029 A 
ATOM     39  C   UNL     1       8.054  74.043  21.473  1.00  0.00    +0.052 A 
BRANCH  39  40
ATOM     40  N   UNL     1       6.824  74.546  21.963  1.00  0.00    -0.250 N 
ATOM     41  C   UNL     1       6.611  75.684  22.725  1.00  0.00    +0.350 C 
ATOM     42  C   UNL     1       5.589  74.031  21.768  1.00  0.00    +0.231 C 
ATOM     43  O   UNL     1       7.409  76.518  23.125  1.00  0.00    -0.246 OA
ATOM     44  N   UNL     1       5.223  75.720  22.952  1.00  0.00    -0.210 N 
ATOM     45  N   UNL     1       4.606  74.677  22.311  1.00  0.00    -0.158 NA
BRANCH  44  46
ATOM     46  C   UNL     1       4.490  76.793  23.605  1.00  0.00    +0.110 C 
ATOM     47  C   UNL     1       3.632  76.246  24.747  1.00  0.00    +0.033 C 
BRANCH  46  48
ATOM     48  C   UNL     1       3.623  77.582  22.608  1.00  0.00    +0.024 C 
ATOM     49  C   UNL     1       4.428  78.543  21.744  1.00  0.00    +0.006 C 
ENDBRANCH  46  48
ENDBRANCH  44  46
ENDBRANCH  39  40
ENDBRANCH  33  34
ENDBRANCH   1  28
TORSDOF 11
ENDMDL
MODEL 8
REMARK VINA RESULT:    -7.661      4.642     15.277
REMARK INTER + INTRA:         -13.928
REMARK INTER:                 -12.542
REMARK INTRA:                  -1.386
REMARK UNBOUND:                -1.341
REMARK SMILES CC[C@@H](C)n1ncn(-c2ccc(N3CCN(c4ccc(OC[C@H]5CO[C@](Cn6cncn6)(c6ccc(Cl)cc6Cl)O5)cc4)CC3)cc2)c1=O
REMARK SMILES IDX 17 1 18 2 43 3 20 4 19 5 42 6 21 7 22 8 23 9 26 10 41 11
REMARK SMILES IDX 25 12 24 13 33 14 39 15 38 16 34 17 36 18 35 19 40 20 37 21
REMARK SMILES IDX 27 22 28 23 32 24 29 25 31 26 30 27 16 28 15 29 44 30 14 31
REMARK SMILES IDX 45 32 13 33 12 34 11 35 46 36 10 37 47 38 9 39 8 40 48 41
REMARK SMILES IDX 7 42 49 43 5 44 6 45 3 46 4 47 2 48 1 49
REMARK H PARENT
ROOT
ATOM      1  C   UNL     1       6.289  75.380  21.713  1.00  0.00    +0.037 A 
ATOM      2  C   UNL     1       6.108  76.761  21.533  1.00  0.00    +0.030 A 
ATOM      3  C   UNL     1       5.347  74.734  22.525  1.00  0.00    +0.030 A 
ATOM      4  C   UNL     1       4.122  76.793  22.919  1.00  0.00    +0.119 A 
ATOM      5  C   UNL     1       5.044  77.462  22.122  1.00  0.00    +0.048 A 
ATOM      6  C   UNL     1       4.280  75.426  23.116  1.00  0.00    +0.048 A 
ENDROOT
BRANCH   4   7
ATOM      7  O   UNL     1       3.045  77.346  23.549  1.00  0.00    -0.491 OA
BRANCH   7   8
ATOM      8  C   UNL     1       2.958  78.775  23.562  1.00  0.00    +0.264 C 
BRANCH   8   9
ATOM      9  C   UNL     1       3.780  79.290  24.739  1.00  0.00    +0.185 C 
ATOM     10  C   UNL     1       4.517  78.741  26.832  1.00  0.00    +0.217 C 
ATOM     11  O   UNL     1       4.321  78.208  25.510  1.00  0.00    -0.335 OA
ATOM     12  O   UNL     1       3.739  79.955  26.947  1.00  0.00    -0.341 OA
ATOM     13  C   UNL     1       2.955  80.033  25.755  1.00  0.00    +0.200 C 
BRANCH  10  14
ATOM     14  C   UNL     1       6.003  79.081  27.029  1.00  0.00    +0.032 A 
ATOM     15  C   UNL     1       7.054  78.315  26.482  1.00  0.00    +0.051 A 
ATOM     16  C   UNL     1       8.393  78.669  26.691  1.00  0.00    +0.041 A 
ATOM     17  C   UNL     1       6.362  80.203  27.813  1.00  0.00    +0.012 A 
ATOM     18  C   UNL     1       8.708  79.786  27.456  1.00  0.00    +0.042 A 
ATOM     19  C   UNL     1       7.698  80.553  28.021  1.00  0.00    +0.021 A 
ATOM     20 Cl   UNL     1       6.789  76.882  25.546  1.00  0.00    -0.084 Cl
ATOM     21 Cl   UNL     1      10.353  80.215  27.710  1.00  0.00    -0.084 Cl
ENDBRANCH  10  14
BRANCH  10  22
ATOM     22  C   UNL     1       4.064  77.732  27.907  1.00  0.00    +0.217 C 
BRANCH  22  23
ATOM     23  N   UNL     1       3.287  76.639  27.361  1.00  0.00    -0.247 N 
ATOM     24  N   UNL     1       3.870  75.486  26.979  1.00  0.00    -0.160 NA
ATOM     25  C   UNL     1       1.949  76.615  27.107  1.00  0.00    +0.219 A 
ATOM     26  C   UNL     1       2.818  74.797  26.526  1.00  0.00    +0.246 A 
ATOM     27  N   UNL     1       1.621  75.449  26.600  1.00  0.00    -0.224 NA
ENDBRANCH  22  23
ENDBRANCH  10  22
ENDBRANCH   8   9
ENDBRANCH   7   8
ENDBRANCH   4   7
BRANCH   1  28
ATOM     28  N   UNL     1       7.347  74.703  21.128  1.00  0.00    -0.368 N 
ATOM     29  C   UNL     1       7.139  73.507  20.296  1.00  0.00    +0.138 C 
ATOM     30  C   UNL     1       8.716  75.247  21.165  1.00  0.00    +0.138 C 
ATOM     31  C   UNL     1       8.409  72.625  20.224  1.00  0.00    +0.138 C 
ATOM     32  C   UNL     1       9.548  74.835  19.926  1.00  0.00    +0.138 C 
ATOM     33  N   UNL     1       9.584  73.374  19.744  1.00  0.00    -0.368 N 
BRANCH  33  34
ATOM     34  C   UNL     1      10.608  72.748  19.057  1.00  0.00    +0.037 A 
ATOM     35  C   UNL     1      10.487  71.439  18.578  1.00  0.00    +0.028 A 
ATOM     36  C   UNL     1      11.832  73.378  18.803  1.00  0.00    +0.028 A 
ATOM     37  C   UNL     1      11.526  70.793  17.883  1.00  0.00    +0.029 A 
ATOM     38  C   UNL     1      12.875  72.741  18.108  1.00  0.00    +0.029 A 
ATOM     39  C   UNL     1      12.744  71.434  17.633  1.00  0.00    +0.052 A 
BRANCH  39  40
ATOM     40  N   UNL     1      13.790  70.785  16.933  1.00  0.00    -0.250 N 
ATOM     41  C   UNL     1      15.156  70.934  17.111  1.00  0.00    +0.350 C 
ATOM     42  C   UNL     1      13.673  69.861  15.953  1.00  0.00    +0.231 C 
ATOM     43  O   UNL     1      15.770  71.623  17.912  1.00  0.00    -0.246 OA
ATOM     44  N   UNL     1      15.746  70.081  16.161  1.00  0.00    -0.210 N 
ATOM     45  N   UNL     1      14.781  69.399  15.466  1.00  0.00    -0.158 NA
BRANCH  44  46
ATOM     46  C   UNL     1      17.166  69.794  16.033  1.00  0.00    +0.110 C 
ATOM     47  C   UNL     1      17.459  69.093  14.706  1.00  0.00    +0.033 C 
BRANCH  46  48
ATOM     48  C   UNL     1      17.690  68.957  17.213  1.00  0.00    +0.024 C 
ATOM     49  C   UNL     1      18.984  68.220  16.896  1.00  0.00    +0.006 C 
ENDBRANCH  46  48
ENDBRANCH  44  46
ENDBRANCH  39  40
ENDBRANCH  33  34
ENDBRANCH   1  28
TORSDOF 11
ENDMDL
MODEL 9
REMARK VINA RESULT:    -7.640      5.181     15.234
REMARK INTER + INTRA:         -13.895
REMARK INTER:                 -13.127
REMARK INTRA:                  -0.768
REMARK UNBOUND:                -1.341
REMARK SMILES CC[C@@H](C)n1ncn(-c2ccc(N3CCN(c4ccc(OC[C@H]5CO[C@](Cn6cncn6)(c6ccc(Cl)cc6Cl)O5)cc4)CC3)cc2)c1=O
REMARK SMILES IDX 17 1 18 2 43 3 20 4 19 5 42 6 21 7 22 8 23 9 26 10 41 11
REMARK SMILES IDX 25 12 24 13 33 14 39 15 38 16 34 17 36 18 35 19 40 20 37 21
REMARK SMILES IDX 27 22 28 23 32 24 29 25 31 26 30 27 16 28 15 29 44 30 14 31
REMARK SMILES IDX 45 32 13 33 12 34 11 35 46 36 10 37 47 38 9 39 8 40 48 41
REMARK SMILES IDX 7 42 49 43 5 44 6 45 3 46 4 47 2 48 1 49
REMARK H PARENT
ROOT
ATOM      1  C   UNL     1      17.252  70.802  19.481  1.00  0.00    +0.037 A 
ATOM      2  C   UNL     1      16.535  70.790  20.688  1.00  0.00    +0.030 A 
ATOM      3  C   UNL     1      16.840  71.744  18.527  1.00  0.00    +0.030 A 
ATOM      4  C   UNL     1      15.089  72.598  19.975  1.00  0.00    +0.119 A 
ATOM      5  C   UNL     1      15.470  71.671  20.938  1.00  0.00    +0.048 A 
ATOM      6  C   UNL     1      15.781  72.629  18.769  1.00  0.00    +0.048 A 
ENDROOT
BRANCH   4   7
ATOM      7  O   UNL     1      14.078  73.510  20.084  1.00  0.00    -0.491 OA
BRANCH   7   8
ATOM      8  C   UNL     1      12.745  73.034  19.873  1.00  0.00    +0.264 C 
BRANCH   8   9
ATOM      9  C   UNL     1      12.822  71.750  19.055  1.00  0.00    +0.185 C 
ATOM     10  C   UNL     1      11.920  70.679  17.247  1.00  0.00    +0.217 C 
ATOM     11  O   UNL     1      12.377  71.964  17.707  1.00  0.00    -0.335 OA
ATOM     12  O   UNL     1      11.714  69.835  18.404  1.00  0.00    -0.341 OA
ATOM     13  C   UNL     1      11.882  70.681  19.542  1.00  0.00    +0.200 C 
BRANCH  10  14
ATOM     14  C   UNL     1      12.999  70.045  16.354  1.00  0.00    +0.032 A 
ATOM     15  C   UNL     1      14.043  69.238  16.853  1.00  0.00    +0.051 A 
ATOM     16  C   UNL     1      15.002  68.683  15.995  1.00  0.00    +0.041 A 
ATOM     17  C   UNL     1      12.977  70.286  14.960  1.00  0.00    +0.012 A 
ATOM     18  C   UNL     1      14.941  68.930  14.628  1.00  0.00    +0.042 A 
ATOM     19  C   UNL     1      13.935  69.732  14.107  1.00  0.00    +0.021 A 
ATOM     20 Cl   UNL     1      14.246  68.891  18.536  1.00  0.00    -0.084 Cl
ATOM     21 Cl   UNL     1      16.121  68.248  13.580  1.00  0.00    -0.084 Cl
ENDBRANCH  10  14
BRANCH  10  22
ATOM     22  C   UNL     1      10.601  70.811  16.460  1.00  0.00    +0.217 C 
BRANCH  22  23
ATOM     23  N   UNL     1       9.430  70.604  17.286  1.00  0.00    -0.247 N 
ATOM     24  N   UNL     1       8.872  71.616  17.979  1.00  0.00    -0.160 NA
ATOM     25  C   UNL     1       8.780  69.432  17.530  1.00  0.00    +0.219 A 
ATOM     26  C   UNL     1       7.870  70.988  18.601  1.00  0.00    +0.246 A 
ATOM     27  N   UNL     1       7.771  69.651  18.341  1.00  0.00    -0.224 NA
ENDBRANCH  22  23
ENDBRANCH  10  22
ENDBRANCH   8   9
ENDBRANCH   7   8
ENDBRANCH   4   7
BRANCH   1  28
ATOM     28  N   UNL     1      18.297  69.924  19.248  1.00  0.00    -0.368 N 
ATOM     29  C   UNL     1      18.884  69.111  20.326  1.00  0.00    +0.138 C 
ATOM     30  C   UNL     1      18.756  69.627  17.878  1.00  0.00    +0.138 C 
ATOM     31  C   UNL     1      20.326  68.660  19.989  1.00  0.00    +0.138 C 
ATOM     32  C   UNL     1      19.321  68.192  17.743  1.00  0.00    +0.138 C 
ATOM     33  N   UNL     1      20.399  67.928  18.712  1.00  0.00    -0.368 N 
BRANCH  33  34
ATOM     34  C   UNL     1      21.363  66.962  18.486  1.00  0.00    +0.037 A 
ATOM     35  C   UNL     1      22.629  67.283  17.983  1.00  0.00    +0.028 A 
ATOM     36  C   UNL     1      21.134  65.605  18.737  1.00  0.00    +0.028 A 
ATOM     37  C   UNL     1      23.613  66.306  17.745  1.00  0.00    +0.029 A 
ATOM     38  C   UNL     1      22.112  64.622  18.504  1.00  0.00    +0.029 A 
ATOM     39  C   UNL     1      23.373  64.952  18.002  1.00  0.00    +0.052 A 
BRANCH  39  40
ATOM     40  N   UNL     1      24.363  63.968  17.764  1.00  0.00    -0.250 N 
ATOM     41  C   UNL     1      24.596  63.256  16.598  1.00  0.00    +0.350 C 
ATOM     42  C   UNL     1      25.311  63.531  18.625  1.00  0.00    +0.231 C 
ATOM     43  O   UNL     1      24.034  63.324  15.516  1.00  0.00    -0.246 OA
ATOM     44  N   UNL     1      25.675  62.405  16.896  1.00  0.00    -0.210 N 
ATOM     45  N   UNL     1      26.119  62.624  18.175  1.00  0.00    -0.158 NA
BRANCH  44  46
ATOM     46  C   UNL     1      26.369  61.541  15.954  1.00  0.00    +0.110 C 
ATOM     47  C   UNL     1      27.174  60.471  16.693  1.00  0.00    +0.033 C 
BRANCH  46  48
ATOM     48  C   UNL     1      27.279  62.343  15.007  1.00  0.00    +0.024 C 
ATOM     49  C   UNL     1      26.848  62.258  13.549  1.00  0.00    +0.006 C 
ENDBRANCH  46  48
ENDBRANCH  44  46
ENDBRANCH  39  40
ENDBRANCH  33  34
ENDBRANCH   1  28
TORSDOF 11
ENDMDL
