MODEL 1
REMARK VINA RESULT:   -10.756      0.000      0.000
REMARK INTER + INTRA:         -18.894
REMARK INTER:                 -17.673
REMARK INTRA:                  -1.221
REMARK UNBOUND:                -1.221
REMARK SMILES CC[C@@H](C)n1ncn(-c2ccc(N3CCN(c4ccc(OC[C@H]5CO[C@](Cn6cncn6)(c6ccc(Cl)cc6Cl)O5)cc4)CC3)cc2)c1=O
REMARK SMILES IDX 17 1 18 2 43 3 20 4 19 5 42 6 21 7 22 8 23 9 26 10 41 11
REMARK SMILES IDX 25 12 24 13 33 14 39 15 38 16 34 17 36 18 35 19 40 20 37 21
REMARK SMILES IDX 27 22 28 23 32 24 29 25 31 26 30 27 16 28 15 29 44 30 14 31
REMARK SMILES IDX 45 32 13 33 12 34 11 35 46 36 10 37 47 38 9 39 8 40 48 41
REMARK SMILES IDX 7 42 49 43 5 44 6 45 3 46 4 47 2 48 1 49
REMARK H PARENT
ROOT
ATOM      1  C   UNL     1     -42.236  17.575   7.718  1.00  0.00    +0.037 A 
ATOM      2  C   UNL     1     -43.555  17.939   8.036  1.00  0.00    +0.030 A 
ATOM      3  C   UNL     1     -41.466  18.550   7.068  1.00  0.00    +0.030 A 
ATOM      4  C   UNL     1     -43.290  20.153   7.090  1.00  0.00    +0.119 A 
ATOM      5  C   UNL     1     -44.080  19.205   7.730  1.00  0.00    +0.048 A 
ATOM      6  C   UNL     1     -41.981  19.818   6.761  1.00  0.00    +0.048 A 
ENDROOT
BRANCH   4   7
ATOM      7  O   UNL     1     -43.668  21.416   6.735  1.00  0.00    -0.491 OA
BRANCH   7   8
ATOM      8  C   UNL     1     -44.428  22.162   7.690  1.00  0.00    +0.264 C 
BRANCH   8   9
ATOM      9  C   UNL     1     -43.634  22.217   8.991  1.00  0.00    +0.185 C 
ATOM     10  C   UNL     1     -43.854  22.403  11.259  1.00  0.00    +0.217 C 
ATOM     11  O   UNL     1     -44.422  21.764  10.102  1.00  0.00    -0.335 OA
ATOM     12  O   UNL     1     -43.036  23.507  10.807  1.00  0.00    -0.341 OA
ATOM     13  C   UNL     1     -43.268  23.618   9.402  1.00  0.00    +0.200 C 
BRANCH  10  14
ATOM     14  C   UNL     1     -42.965  21.399  12.010  1.00  0.00    +0.032 A 
ATOM     15  C   UNL     1     -42.088  21.768  13.053  1.00  0.00    +0.051 A 
ATOM     16  C   UNL     1     -41.299  20.813  13.706  1.00  0.00    +0.041 A 
ATOM     17  C   UNL     1     -42.993  20.034  11.642  1.00  0.00    +0.012 A 
ATOM     18  C   UNL     1     -41.363  19.477  13.327  1.00  0.00    +0.042 A 
ATOM     19  C   UNL     1     -42.204  19.083  12.295  1.00  0.00    +0.021 A 
ATOM     20 Cl   UNL     1     -41.893  23.403  13.588  1.00  0.00    -0.084 Cl
ATOM     21 Cl   UNL     1     -40.390  18.310  14.131  1.00  0.00    -0.084 Cl
ENDBRANCH  10  14
BRANCH  10  22
ATOM     22  C   UNL     1     -44.959  22.928  12.198  1.00  0.00    +0.217 C 
BRANCH  22  23
ATOM     23  N   UNL     1     -45.643  21.868  12.908  1.00  0.00    -0.247 N 
ATOM     24  N   UNL     1     -45.480  21.693  14.234  1.00  0.00    -0.160 NA
ATOM     25  C   UNL     1     -46.458  20.908  12.389  1.00  0.00    +0.219 A 
ATOM     26  C   UNL     1     -46.248  20.622  14.455  1.00  0.00    +0.246 A 
ATOM     27  N   UNL     1     -46.875  20.119  13.351  1.00  0.00    -0.224 NA
ENDBRANCH  22  23
ENDBRANCH  10  22
ENDBRANCH   8   9
ENDBRANCH   7   8
ENDBRANCH   4   7
BRANCH   1  28
ATOM     28  N   UNL     1     -41.735  16.321   8.022  1.00  0.00    -0.368 N 
ATOM     29  C   UNL     1     -40.435  15.858   7.510  1.00  0.00    +0.138 C 
ATOM     30  C   UNL     1     -42.395  15.454   9.015  1.00  0.00    +0.138 C 
ATOM     31  C   UNL     1     -40.337  14.313   7.492  1.00  0.00    +0.138 C 
ATOM     32  C   UNL     1     -41.394  14.532   9.752  1.00  0.00    +0.138 C 
ATOM     33  N   UNL     1     -40.596  13.721   8.817  1.00  0.00    -0.368 N 
BRANCH  33  34
ATOM     34  C   UNL     1     -40.021  12.521   9.197  1.00  0.00    +0.037 A 
ATOM     35  C   UNL     1     -40.491  11.292   8.721  1.00  0.00    +0.028 A 
ATOM     36  C   UNL     1     -38.942  12.458  10.085  1.00  0.00    +0.028 A 
ATOM     37  C   UNL     1     -39.916  10.067   9.107  1.00  0.00    +0.029 A 
ATOM     38  C   UNL     1     -38.359  11.239  10.474  1.00  0.00    +0.029 A 
ATOM     39  C   UNL     1     -38.836  10.017   9.994  1.00  0.00    +0.052 A 
BRANCH  39  40
ATOM     40  N   UNL     1     -38.255   8.785  10.382  1.00  0.00    -0.250 N 
ATOM     41  C   UNL     1     -38.665   7.929  11.392  1.00  0.00    +0.350 C 
ATOM     42  C   UNL     1     -37.186   8.170   9.828  1.00  0.00    +0.231 C 
ATOM     43  O   UNL     1     -39.617   8.018  12.154  1.00  0.00    -0.246 OA
ATOM     44  N   UNL     1     -37.746   6.865  11.369  1.00  0.00    -0.210 N 
ATOM     45  N   UNL     1     -36.843   7.035  10.352  1.00  0.00    -0.158 NA
BRANCH  44  46
ATOM     46  C   UNL     1     -37.823   5.650  12.165  1.00  0.00    +0.110 C 
ATOM     47  C   UNL     1     -39.112   4.885  11.862  1.00  0.00    +0.033 C 
BRANCH  46  48
ATOM     48  C   UNL     1     -37.712   5.945  13.671  1.00  0.00    +0.024 C 
ATOM     49  C   UNL     1     -38.557   5.011  14.527  1.00  0.00    +0.006 C 
ENDBRANCH  46  48
ENDBRANCH  44  46
ENDBRANCH  39  40
ENDBRANCH  33  34
ENDBRANCH   1  28
TORSDOF 11
ENDMDL
MODEL 2
REMARK VINA RESULT:   -10.308      3.858     12.690
REMARK INTER + INTRA:         -18.157
REMARK INTER:                 -17.233
REMARK INTRA:                  -0.924
REMARK UNBOUND:                -1.221
REMARK SMILES CC[C@@H](C)n1ncn(-c2ccc(N3CCN(c4ccc(OC[C@H]5CO[C@](Cn6cncn6)(c6ccc(Cl)cc6Cl)O5)cc4)CC3)cc2)c1=O
REMARK SMILES IDX 17 1 18 2 43 3 20 4 19 5 42 6 21 7 22 8 23 9 26 10 41 11
REMARK SMILES IDX 25 12 24 13 33 14 39 15 38 16 34 17 36 18 35 19 40 20 37 21
REMARK SMILES IDX 27 22 28 23 32 24 29 25 31 26 30 27 16 28 15 29 44 30 14 31
REMARK SMILES IDX 45 32 13 33 12 34 11 35 46 36 10 37 47 38 9 39 8 40 48 41
REMARK SMILES IDX 7 42 49 43 5 44 6 45 3 46 4 47 2 48 1 49
REMARK H PARENT
ROOT
ATOM      1  C   UNL     1     -39.587   9.278  11.054  1.00  0.00    +0.037 A 
ATOM      2  C   UNL     1     -38.274   8.780  11.010  1.00  0.00    +0.030 A 
ATOM      3  C   UNL     1     -40.522   8.493  11.743  1.00  0.00    +0.030 A 
ATOM      4  C   UNL     1     -38.857   6.818  12.304  1.00  0.00    +0.119 A 
ATOM      5  C   UNL     1     -37.908   7.571  11.623  1.00  0.00    +0.048 A 
ATOM      6  C   UNL     1     -40.165   7.286  12.360  1.00  0.00    +0.048 A 
ENDROOT
BRANCH   4   7
ATOM      7  O   UNL     1     -38.642   5.631  12.944  1.00  0.00    -0.491 OA
BRANCH   7   8
ATOM      8  C   UNL     1     -38.366   5.686  14.347  1.00  0.00    +0.264 C 
BRANCH   8   9
ATOM      9  C   UNL     1     -39.091   6.896  14.926  1.00  0.00    +0.185 C 
ATOM     10  C   UNL     1     -38.752   8.886  16.001  1.00  0.00    +0.217 C 
ATOM     11  O   UNL     1     -38.240   8.052  14.946  1.00  0.00    -0.335 OA
ATOM     12  O   UNL     1     -39.605   8.074  16.841  1.00  0.00    -0.341 OA
ATOM     13  C   UNL     1     -39.449   6.732  16.378  1.00  0.00    +0.200 C 
BRANCH  10  14
ATOM     14  C   UNL     1     -39.590  10.021  15.391  1.00  0.00    +0.032 A 
ATOM     15  C   UNL     1     -39.097  10.909  14.410  1.00  0.00    +0.051 A 
ATOM     16  C   UNL     1     -39.903  11.928  13.886  1.00  0.00    +0.041 A 
ATOM     17  C   UNL     1     -40.918  10.221  15.834  1.00  0.00    +0.012 A 
ATOM     18  C   UNL     1     -41.209  12.086  14.336  1.00  0.00    +0.042 A 
ATOM     19  C   UNL     1     -41.720  11.239  15.310  1.00  0.00    +0.021 A 
ATOM     20 Cl   UNL     1     -37.479  10.836  13.800  1.00  0.00    -0.084 Cl
ATOM     21 Cl   UNL     1     -42.192  13.339  13.690  1.00  0.00    -0.084 Cl
ENDBRANCH  10  14
BRANCH  10  22
ATOM     22  C   UNL     1     -37.605   9.477  16.844  1.00  0.00    +0.217 C 
BRANCH  22  23
ATOM     23  N   UNL     1     -38.007   9.791  18.199  1.00  0.00    -0.247 N 
ATOM     24  N   UNL     1     -37.471   9.151  19.256  1.00  0.00    -0.160 NA
ATOM     25  C   UNL     1     -38.962  10.677  18.600  1.00  0.00    +0.219 A 
ATOM     26  C   UNL     1     -38.131   9.719  20.270  1.00  0.00    +0.246 A 
ATOM     27  N   UNL     1     -39.043  10.669  19.911  1.00  0.00    -0.224 NA
ENDBRANCH  22  23
ENDBRANCH  10  22
ENDBRANCH   8   9
ENDBRANCH   7   8
ENDBRANCH   4   7
BRANCH   1  28
ATOM     28  N   UNL     1     -39.933  10.470  10.440  1.00  0.00    -0.368 N 
ATOM     29  C   UNL     1     -41.287  11.037  10.551  1.00  0.00    +0.138 C 
ATOM     30  C   UNL     1     -38.917  11.319   9.792  1.00  0.00    +0.138 C 
ATOM     31  C   UNL     1     -41.604  12.008   9.388  1.00  0.00    +0.138 C 
ATOM     32  C   UNL     1     -39.281  12.823   9.851  1.00  0.00    +0.138 C 
ATOM     33  N   UNL     1     -40.612  13.093   9.280  1.00  0.00    -0.368 N 
BRANCH  33  34
ATOM     34  C   UNL     1     -40.952  14.335   8.774  1.00  0.00    +0.037 A 
ATOM     35  C   UNL     1     -40.339  14.862   7.631  1.00  0.00    +0.028 A 
ATOM     36  C   UNL     1     -41.920  15.147   9.375  1.00  0.00    +0.028 A 
ATOM     37  C   UNL     1     -40.674  16.126   7.114  1.00  0.00    +0.029 A 
ATOM     38  C   UNL     1     -42.263  16.411   8.863  1.00  0.00    +0.029 A 
ATOM     39  C   UNL     1     -41.646  16.928   7.721  1.00  0.00    +0.052 A 
BRANCH  39  40
ATOM     40  N   UNL     1     -41.985  18.201   7.201  1.00  0.00    -0.250 N 
ATOM     41  C   UNL     1     -43.011  19.041   7.604  1.00  0.00    +0.350 C 
ATOM     42  C   UNL     1     -41.359  18.877   6.212  1.00  0.00    +0.231 C 
ATOM     43  O   UNL     1     -43.832  18.900   8.498  1.00  0.00    -0.246 OA
ATOM     44  N   UNL     1     -42.920  20.163   6.761  1.00  0.00    -0.210 N 
ATOM     45  N   UNL     1     -41.849  20.039   5.913  1.00  0.00    -0.158 NA
BRANCH  44  46
ATOM     46  C   UNL     1     -43.708  21.381   6.868  1.00  0.00    +0.110 C 
ATOM     47  C   UNL     1     -43.591  22.215   5.592  1.00  0.00    +0.033 C 
BRANCH  46  48
ATOM     48  C   UNL     1     -43.307  22.215   8.097  1.00  0.00    +0.024 C 
ATOM     49  C   UNL     1     -43.834  23.643   8.049  1.00  0.00    +0.006 C 
ENDBRANCH  46  48
ENDBRANCH  44  46
ENDBRANCH  39  40
ENDBRANCH  33  34
ENDBRANCH   1  28
TORSDOF 11
ENDMDL
MODEL 3
REMARK VINA RESULT:   -10.205      3.625     13.813
REMARK INTER + INTRA:         -17.988
REMARK INTER:                 -17.529
REMARK INTRA:                  -0.459
REMARK UNBOUND:                -1.221
REMARK SMILES CC[C@@H](C)n1ncn(-c2ccc(N3CCN(c4ccc(OC[C@H]5CO[C@](Cn6cncn6)(c6ccc(Cl)cc6Cl)O5)cc4)CC3)cc2)c1=O
REMARK SMILES IDX 17 1 18 2 43 3 20 4 19 5 42 6 21 7 22 8 23 9 26 10 41 11
REMARK SMILES IDX 25 12 24 13 33 14 39 15 38 16 34 17 36 18 35 19 40 20 37 21
REMARK SMILES IDX 27 22 28 23 32 24 29 25 31 26 30 27 16 28 15 29 44 30 14 31
REMARK SMILES IDX 45 32 13 33 12 34 11 35 46 36 10 37 47 38 9 39 8 40 48 41
REMARK SMILES IDX 7 42 49 43 5 44 6 45 3 46 4 47 2 48 1 49
REMARK H PARENT
ROOT
ATOM      1  C   UNL     1     -40.140  10.373  14.934  1.00  0.00    +0.037 A 
ATOM      2  C   UNL     1     -38.782  10.027  14.844  1.00  0.00    +0.030 A 
ATOM      3  C   UNL     1     -40.996   9.387  15.443  1.00  0.00    +0.030 A 
ATOM      4  C   UNL     1     -39.172   7.815  15.750  1.00  0.00    +0.119 A 
ATOM      5  C   UNL     1     -38.299   8.771  15.244  1.00  0.00    +0.048 A 
ATOM      6  C   UNL     1     -40.523   8.131  15.847  1.00  0.00    +0.048 A 
ENDROOT
BRANCH   4   7
ATOM      7  O   UNL     1     -38.842   6.560  16.176  1.00  0.00    -0.491 OA
BRANCH   7   8
ATOM      8  C   UNL     1     -38.759   5.535  15.181  1.00  0.00    +0.264 C 
BRANCH   8   9
ATOM      9  C   UNL     1     -38.439   6.194  13.844  1.00  0.00    +0.185 C 
ATOM     10  C   UNL     1     -39.208   6.459  11.707  1.00  0.00    +0.217 C 
ATOM     11  O   UNL     1     -39.631   6.433  13.082  1.00  0.00    -0.335 OA
ATOM     12  O   UNL     1     -37.899   5.849  11.629  1.00  0.00    -0.341 OA
ATOM     13  C   UNL     1     -37.638   5.311  12.925  1.00  0.00    +0.200 C 
BRANCH  10  14
ATOM     14  C   UNL     1     -39.106   7.918  11.233  1.00  0.00    +0.032 A 
ATOM     15  C   UNL     1     -37.932   8.474  10.680  1.00  0.00    +0.051 A 
ATOM     16  C   UNL     1     -37.892   9.811  10.263  1.00  0.00    +0.041 A 
ATOM     17  C   UNL     1     -40.225   8.773  11.367  1.00  0.00    +0.012 A 
ATOM     18  C   UNL     1     -39.016  10.618  10.397  1.00  0.00    +0.042 A 
ATOM     19  C   UNL     1     -40.182  10.106  10.951  1.00  0.00    +0.021 A 
ATOM     20 Cl   UNL     1     -36.460   7.582  10.497  1.00  0.00    -0.084 Cl
ATOM     21 Cl   UNL     1     -38.960  12.258   9.885  1.00  0.00    -0.084 Cl
ENDBRANCH  10  14
BRANCH  10  22
ATOM     22  C   UNL     1     -40.195   5.686  10.810  1.00  0.00    +0.217 C 
BRANCH  22  23
ATOM     23  N   UNL     1     -40.004   5.956   9.400  1.00  0.00    -0.247 N 
ATOM     24  N   UNL     1     -41.009   6.418   8.632  1.00  0.00    -0.160 NA
ATOM     25  C   UNL     1     -38.880   5.749   8.657  1.00  0.00    +0.219 A 
ATOM     26  C   UNL     1     -40.415   6.493   7.438  1.00  0.00    +0.246 A 
ATOM     27  N   UNL     1     -39.106   6.105   7.414  1.00  0.00    -0.224 NA
ENDBRANCH  22  23
ENDBRANCH  10  22
ENDBRANCH   8   9
ENDBRANCH   7   8
ENDBRANCH   4   7
BRANCH   1  28
ATOM     28  N   UNL     1     -40.601  11.615  14.530  1.00  0.00    -0.368 N 
ATOM     29  C   UNL     1     -39.815  12.842  14.741  1.00  0.00    +0.138 C 
ATOM     30  C   UNL     1     -41.821  11.750  13.714  1.00  0.00    +0.138 C 
ATOM     31  C   UNL     1     -40.707  14.107  14.743  1.00  0.00    +0.138 C 
ATOM     32  C   UNL     1     -41.770  12.979  12.775  1.00  0.00    +0.138 C 
ATOM     33  N   UNL     1     -41.509  14.228  13.512  1.00  0.00    -0.368 N 
BRANCH  33  34
ATOM     34  C   UNL     1     -41.893  15.462  13.018  1.00  0.00    +0.037 A 
ATOM     35  C   UNL     1     -41.008  16.283  12.310  1.00  0.00    +0.028 A 
ATOM     36  C   UNL     1     -43.183  15.972  13.201  1.00  0.00    +0.028 A 
ATOM     37  C   UNL     1     -41.389  17.542  11.809  1.00  0.00    +0.029 A 
ATOM     38  C   UNL     1     -43.572  17.227  12.702  1.00  0.00    +0.029 A 
ATOM     39  C   UNL     1     -42.682  18.040  11.996  1.00  0.00    +0.052 A 
BRANCH  39  40
ATOM     40  N   UNL     1     -43.067  19.306  11.491  1.00  0.00    -0.250 N 
ATOM     41  C   UNL     1     -43.598  19.603  10.247  1.00  0.00    +0.350 C 
ATOM     42  C   UNL     1     -43.018  20.495  12.133  1.00  0.00    +0.231 C 
ATOM     43  O   UNL     1     -43.879  18.859   9.318  1.00  0.00    -0.246 OA
ATOM     44  N   UNL     1     -43.788  20.996  10.250  1.00  0.00    -0.210 N 
ATOM     45  N   UNL     1     -43.438  21.524  11.466  1.00  0.00    -0.158 NA
BRANCH  44  46
ATOM     46  C   UNL     1     -44.437  21.774   9.207  1.00  0.00    +0.110 C 
ATOM     47  C   UNL     1     -45.848  21.249   8.939  1.00  0.00    +0.033 C 
BRANCH  46  48
ATOM     48  C   UNL     1     -43.612  21.791   7.908  1.00  0.00    +0.024 C 
ATOM     49  C   UNL     1     -42.910  23.120   7.663  1.00  0.00    +0.006 C 
ENDBRANCH  46  48
ENDBRANCH  44  46
ENDBRANCH  39  40
ENDBRANCH  33  34
ENDBRANCH   1  28
TORSDOF 11
ENDMDL
MODEL 4
REMARK VINA RESULT:    -9.778      6.020     14.270
REMARK INTER + INTRA:         -17.286
REMARK INTER:                 -15.908
REMARK INTRA:                  -1.378
REMARK UNBOUND:                -1.221
REMARK SMILES CC[C@@H](C)n1ncn(-c2ccc(N3CCN(c4ccc(OC[C@H]5CO[C@](Cn6cncn6)(c6ccc(Cl)cc6Cl)O5)cc4)CC3)cc2)c1=O
REMARK SMILES IDX 17 1 18 2 43 3 20 4 19 5 42 6 21 7 22 8 23 9 26 10 41 11
REMARK SMILES IDX 25 12 24 13 33 14 39 15 38 16 34 17 36 18 35 19 40 20 37 21
REMARK SMILES IDX 27 22 28 23 32 24 29 25 31 26 30 27 16 28 15 29 44 30 14 31
REMARK SMILES IDX 45 32 13 33 12 34 11 35 46 36 10 37 47 38 9 39 8 40 48 41
REMARK SMILES IDX 7 42 49 43 5 44 6 45 3 46 4 47 2 48 1 49
REMARK H PARENT
ROOT
ATOM      1  C   UNL     1     -39.730   9.724  15.907  1.00  0.00    +0.037 A 
ATOM      2  C   UNL     1     -38.362   9.592  15.612  1.00  0.00    +0.030 A 
ATOM      3  C   UNL     1     -40.444   8.528  16.066  1.00  0.00    +0.030 A 
ATOM      4  C   UNL     1     -38.472   7.173  15.656  1.00  0.00    +0.119 A 
ATOM      5  C   UNL     1     -37.737   8.341  15.488  1.00  0.00    +0.048 A 
ATOM      6  C   UNL     1     -39.828   7.275  15.946  1.00  0.00    +0.048 A 
ENDROOT
BRANCH   4   7
ATOM      7  O   UNL     1     -37.995   5.897  15.565  1.00  0.00    -0.491 OA
BRANCH   7   8
ATOM      8  C   UNL     1     -38.129   5.240  14.301  1.00  0.00    +0.264 C 
BRANCH   8   9
ATOM      9  C   UNL     1     -38.142   6.305  13.210  1.00  0.00    +0.185 C 
ATOM     10  C   UNL     1     -39.304   7.030  11.379  1.00  0.00    +0.217 C 
ATOM     11  O   UNL     1     -39.471   6.529  12.718  1.00  0.00    -0.335 OA
ATOM     12  O   UNL     1     -37.957   6.722  10.950  1.00  0.00    -0.341 OA
ATOM     13  C   UNL     1     -37.401   5.890  11.968  1.00  0.00    +0.200 C 
BRANCH  10  14
ATOM     14  C   UNL     1     -39.489   8.556  11.380  1.00  0.00    +0.032 A 
ATOM     15  C   UNL     1     -38.730   9.430  10.572  1.00  0.00    +0.051 A 
ATOM     16  C   UNL     1     -38.939  10.815  10.610  1.00  0.00    +0.041 A 
ATOM     17  C   UNL     1     -40.448   9.140  12.240  1.00  0.00    +0.012 A 
ATOM     18  C   UNL     1     -39.901  11.353  11.458  1.00  0.00    +0.042 A 
ATOM     19  C   UNL     1     -40.654  10.522  12.276  1.00  0.00    +0.021 A 
ATOM     20 Cl   UNL     1     -37.480   8.884   9.506  1.00  0.00    -0.084 Cl
ATOM     21 Cl   UNL     1     -40.151  13.053  11.501  1.00  0.00    -0.084 Cl
ENDBRANCH  10  14
BRANCH  10  22
ATOM     22  C   UNL     1     -40.317   6.381  10.415  1.00  0.00    +0.217 C 
BRANCH  22  23
ATOM     23  N   UNL     1     -39.935   6.514   9.025  1.00  0.00    -0.247 N 
ATOM     24  N   UNL     1     -40.524   7.419   8.219  1.00  0.00    -0.160 NA
ATOM     25  C   UNL     1     -39.029   5.766   8.335  1.00  0.00    +0.219 A 
ATOM     26  C   UNL     1     -39.906   7.180   7.059  1.00  0.00    +0.246 A 
ATOM     27  N   UNL     1     -38.973   6.184   7.092  1.00  0.00    -0.224 NA
ENDBRANCH  22  23
ENDBRANCH  10  22
ENDBRANCH   8   9
ENDBRANCH   7   8
ENDBRANCH   4   7
BRANCH   1  28
ATOM     28  N   UNL     1     -40.332  10.965  16.022  1.00  0.00    -0.368 N 
ATOM     29  C   UNL     1     -41.770  11.157  15.771  1.00  0.00    +0.138 C 
ATOM     30  C   UNL     1     -39.602  12.122  16.572  1.00  0.00    +0.138 C 
ATOM     31  C   UNL     1     -42.103  12.625  15.410  1.00  0.00    +0.138 C 
ATOM     32  C   UNL     1     -40.537  13.117  17.301  1.00  0.00    +0.138 C 
ATOM     33  N   UNL     1     -41.641  13.573  16.440  1.00  0.00    -0.368 N 
BRANCH  33  34
ATOM     34  C   UNL     1     -42.289  14.775  16.658  1.00  0.00    +0.037 A 
ATOM     35  C   UNL     1     -43.026  15.412  15.652  1.00  0.00    +0.028 A 
ATOM     36  C   UNL     1     -42.245  15.436  17.891  1.00  0.00    +0.028 A 
ATOM     37  C   UNL     1     -43.683  16.638  15.864  1.00  0.00    +0.029 A 
ATOM     38  C   UNL     1     -42.900  16.659  18.112  1.00  0.00    +0.029 A 
ATOM     39  C   UNL     1     -43.633  17.288  17.102  1.00  0.00    +0.052 A 
BRANCH  39  40
ATOM     40  N   UNL     1     -44.295  18.521  17.316  1.00  0.00    -0.250 N 
ATOM     41  C   UNL     1     -45.547  18.732  17.872  1.00  0.00    +0.350 C 
ATOM     42  C   UNL     1     -43.829  19.761  17.045  1.00  0.00    +0.231 C 
ATOM     43  O   UNL     1     -46.349  17.927  18.321  1.00  0.00    -0.246 OA
ATOM     44  N   UNL     1     -45.732  20.125  17.843  1.00  0.00    -0.210 N 
ATOM     45  N   UNL     1     -44.617  20.747  17.341  1.00  0.00    -0.158 NA
BRANCH  44  46
ATOM     46  C   UNL     1     -46.848  20.853  18.427  1.00  0.00    +0.110 C 
ATOM     47  C   UNL     1     -47.466  21.808  17.405  1.00  0.00    +0.033 C 
BRANCH  46  48
ATOM     48  C   UNL     1     -46.432  21.617  19.697  1.00  0.00    +0.024 C 
ATOM     49  C   UNL     1     -46.653  20.818  20.974  1.00  0.00    +0.006 C 
ENDBRANCH  46  48
ENDBRANCH  44  46
ENDBRANCH  39  40
ENDBRANCH  33  34
ENDBRANCH   1  28
TORSDOF 11
ENDMDL
MODEL 5
REMARK VINA RESULT:    -9.752      1.430      2.030
REMARK INTER + INTRA:         -17.244
REMARK INTER:                 -16.079
REMARK INTRA:                  -1.165
REMARK UNBOUND:                -1.221
REMARK SMILES CC[C@@H](C)n1ncn(-c2ccc(N3CCN(c4ccc(OC[C@H]5CO[C@](Cn6cncn6)(c6ccc(Cl)cc6Cl)O5)cc4)CC3)cc2)c1=O
REMARK SMILES IDX 17 1 18 2 43 3 20 4 19 5 42 6 21 7 22 8 23 9 26 10 41 11
REMARK SMILES IDX 25 12 24 13 33 14 39 15 38 16 34 17 36 18 35 19 40 20 37 21
REMARK SMILES IDX 27 22 28 23 32 24 29 25 31 26 30 27 16 28 15 29 44 30 14 31
REMARK SMILES IDX 45 32 13 33 12 34 11 35 46 36 10 37 47 38 9 39 8 40 48 41
REMARK SMILES IDX 7 42 49 43 5 44 6 45 3 46 4 47 2 48 1 49
REMARK H PARENT
ROOT
ATOM      1  C   UNL     1     -43.348  18.398   8.475  1.00  0.00    +0.037 A 
ATOM      2  C   UNL     1     -42.730  19.490   7.842  1.00  0.00    +0.030 A 
ATOM      3  C   UNL     1     -44.631  18.629   8.991  1.00  0.00    +0.030 A 
ATOM      4  C   UNL     1     -44.631  20.937   8.239  1.00  0.00    +0.119 A 
ATOM      5  C   UNL     1     -43.356  20.741   7.722  1.00  0.00    +0.048 A 
ATOM      6  C   UNL     1     -45.264  19.874   8.873  1.00  0.00    +0.048 A 
ENDROOT
BRANCH   4   7
ATOM      7  O   UNL     1     -45.355  22.094   8.193  1.00  0.00    -0.491 OA
BRANCH   7   8
ATOM      8  C   UNL     1     -45.391  22.888   9.383  1.00  0.00    +0.264 C 
BRANCH   8   9
ATOM      9  C   UNL     1     -44.212  22.485  10.260  1.00  0.00    +0.185 C 
ATOM     10  C   UNL     1     -43.548  22.252  12.436  1.00  0.00    +0.217 C 
ATOM     11  O   UNL     1     -44.652  22.017  11.543  1.00  0.00    -0.335 OA
ATOM     12  O   UNL     1     -42.653  23.196  11.804  1.00  0.00    -0.341 OA
ATOM     13  C   UNL     1     -43.322  23.643  10.624  1.00  0.00    +0.200 C 
BRANCH  10  14
ATOM     14  C   UNL     1     -42.796  20.933  12.672  1.00  0.00    +0.032 A 
ATOM     15  C   UNL     1     -41.625  20.837  13.454  1.00  0.00    +0.051 A 
ATOM     16  C   UNL     1     -40.977  19.609  13.639  1.00  0.00    +0.041 A 
ATOM     17  C   UNL     1     -43.269  19.744  12.069  1.00  0.00    +0.012 A 
ATOM     18  C   UNL     1     -41.478  18.458  13.042  1.00  0.00    +0.042 A 
ATOM     19  C   UNL     1     -42.620  18.521  12.255  1.00  0.00    +0.021 A 
ATOM     20 Cl   UNL     1     -40.884  22.204  14.216  1.00  0.00    -0.084 Cl
ATOM     21 Cl   UNL     1     -40.677  16.955  13.271  1.00  0.00    -0.084 Cl
ENDBRANCH  10  14
BRANCH  10  22
ATOM     22  C   UNL     1     -44.038  22.824  13.782  1.00  0.00    +0.217 C 
BRANCH  22  23
ATOM     23  N   UNL     1     -44.920  21.919  14.489  1.00  0.00    -0.247 N 
ATOM     24  N   UNL     1     -46.135  21.601  14.003  1.00  0.00    -0.160 NA
ATOM     25  C   UNL     1     -44.711  21.329  15.699  1.00  0.00    +0.219 A 
ATOM     26  C   UNL     1     -46.598  20.792  14.960  1.00  0.00    +0.246 A 
ATOM     27  N   UNL     1     -45.749  20.588  16.010  1.00  0.00    -0.224 NA
ENDBRANCH  22  23
ENDBRANCH  10  22
ENDBRANCH   8   9
ENDBRANCH   7   8
ENDBRANCH   4   7
BRANCH   1  28
ATOM     28  N   UNL     1     -42.715  17.172   8.590  1.00  0.00    -0.368 N 
ATOM     29  C   UNL     1     -43.256  16.094   9.434  1.00  0.00    +0.138 C 
ATOM     30  C   UNL     1     -41.565  16.822   7.736  1.00  0.00    +0.138 C 
ATOM     31  C   UNL     1     -42.162  15.082   9.852  1.00  0.00    +0.138 C 
ATOM     32  C   UNL     1     -41.483  15.303   7.451  1.00  0.00    +0.138 C 
ATOM     33  N   UNL     1     -41.460  14.506   8.690  1.00  0.00    -0.368 N 
BRANCH  33  34
ATOM     34  C   UNL     1     -40.913  13.237   8.733  1.00  0.00    +0.037 A 
ATOM     35  C   UNL     1     -41.420  12.240   9.574  1.00  0.00    +0.028 A 
ATOM     36  C   UNL     1     -39.814  12.870   7.948  1.00  0.00    +0.028 A 
ATOM     37  C   UNL     1     -40.866  10.948   9.628  1.00  0.00    +0.029 A 
ATOM     38  C   UNL     1     -39.255  11.581   7.993  1.00  0.00    +0.029 A 
ATOM     39  C   UNL     1     -39.769  10.592   8.836  1.00  0.00    +0.052 A 
BRANCH  39  40
ATOM     40  N   UNL     1     -39.210   9.292   8.888  1.00  0.00    -0.250 N 
ATOM     41  C   UNL     1     -38.836   8.568  10.009  1.00  0.00    +0.350 C 
ATOM     42  C   UNL     1     -38.947   8.468   7.848  1.00  0.00    +0.231 C 
ATOM     43  O   UNL     1     -38.919   8.862  11.193  1.00  0.00    -0.246 OA
ATOM     44  N   UNL     1     -38.331   7.354   9.512  1.00  0.00    -0.210 N 
ATOM     45  N   UNL     1     -38.442   7.313   8.146  1.00  0.00    -0.158 NA
BRANCH  44  46
ATOM     46  C   UNL     1     -37.921   6.208  10.308  1.00  0.00    +0.110 C 
ATOM     47  C   UNL     1     -39.098   5.660  11.116  1.00  0.00    +0.033 C 
BRANCH  46  48
ATOM     48  C   UNL     1     -36.741   6.548  11.236  1.00  0.00    +0.024 C 
ATOM     49  C   UNL     1     -36.933   6.037  12.658  1.00  0.00    +0.006 C 
ENDBRANCH  46  48
ENDBRANCH  44  46
ENDBRANCH  39  40
ENDBRANCH  33  34
ENDBRANCH   1  28
TORSDOF 11
ENDMDL
MODEL 6
REMARK VINA RESULT:    -9.670      6.234     13.695
REMARK INTER + INTRA:         -17.109
REMARK INTER:                 -15.599
REMARK INTRA:                  -1.510
REMARK UNBOUND:                -1.221
REMARK SMILES CC[C@@H](C)n1ncn(-c2ccc(N3CCN(c4ccc(OC[C@H]5CO[C@](Cn6cncn6)(c6ccc(Cl)cc6Cl)O5)cc4)CC3)cc2)c1=O
REMARK SMILES IDX 17 1 18 2 43 3 20 4 19 5 42 6 21 7 22 8 23 9 26 10 41 11
REMARK SMILES IDX 25 12 24 13 33 14 39 15 38 16 34 17 36 18 35 19 40 20 37 21
REMARK SMILES IDX 27 22 28 23 32 24 29 25 31 26 30 27 16 28 15 29 44 30 14 31
REMARK SMILES IDX 45 32 13 33 12 34 11 35 46 36 10 37 47 38 9 39 8 40 48 41
REMARK SMILES IDX 7 42 49 43 5 44 6 45 3 46 4 47 2 48 1 49
REMARK H PARENT
ROOT
ATOM      1  C   UNL     1     -39.349  10.591  15.434  1.00  0.00    +0.037 A 
ATOM      2  C   UNL     1     -38.035  10.683  14.946  1.00  0.00    +0.030 A 
ATOM      3  C   UNL     1     -40.000   9.366  15.226  1.00  0.00    +0.030 A 
ATOM      4  C   UNL     1     -38.070   8.412  14.105  1.00  0.00    +0.119 A 
ATOM      5  C   UNL     1     -37.400   9.615  14.291  1.00  0.00    +0.048 A 
ATOM      6  C   UNL     1     -39.373   8.294  14.576  1.00  0.00    +0.048 A 
ENDROOT
BRANCH   4   7
ATOM      7  O   UNL     1     -37.576   7.297  13.490  1.00  0.00    -0.491 OA
BRANCH   7   8
ATOM      8  C   UNL     1     -37.907   7.113  12.110  1.00  0.00    +0.264 C 
BRANCH   8   9
ATOM      9  C   UNL     1     -38.058   8.489  11.470  1.00  0.00    +0.185 C 
ATOM     10  C   UNL     1     -39.297   9.674   9.958  1.00  0.00    +0.217 C 
ATOM     11  O   UNL     1     -39.402   8.709  11.021  1.00  0.00    -0.335 OA
ATOM     12  O   UNL     1     -37.920   9.708   9.517  1.00  0.00    -0.341 OA
ATOM     13  C   UNL     1     -37.262   8.641  10.201  1.00  0.00    +0.200 C 
BRANCH  10  14
ATOM     14  C   UNL     1     -39.685  11.063  10.491  1.00  0.00    +0.032 A 
ATOM     15  C   UNL     1     -39.787  12.207   9.671  1.00  0.00    +0.051 A 
ATOM     16  C   UNL     1     -40.145  13.451  10.207  1.00  0.00    +0.041 A 
ATOM     17  C   UNL     1     -39.936  11.233  11.872  1.00  0.00    +0.012 A 
ATOM     18  C   UNL     1     -40.398  13.578  11.568  1.00  0.00    +0.042 A 
ATOM     19  C   UNL     1     -40.291  12.475  12.404  1.00  0.00    +0.021 A 
ATOM     20 Cl   UNL     1     -39.460  12.183   7.971  1.00  0.00    -0.084 Cl
ATOM     21 Cl   UNL     1     -40.835  15.107  12.220  1.00  0.00    -0.084 Cl
ENDBRANCH  10  14
BRANCH  10  22
ATOM     22  C   UNL     1     -40.210   9.294   8.775  1.00  0.00    +0.217 C 
BRANCH  22  23
ATOM     23  N   UNL     1     -39.937   7.971   8.255  1.00  0.00    -0.247 N 
ATOM     24  N   UNL     1     -40.429   6.867   8.851  1.00  0.00    -0.160 NA
ATOM     25  C   UNL     1     -39.150   7.639   7.194  1.00  0.00    +0.219 A 
ATOM     26  C   UNL     1     -39.921   5.902   8.080  1.00  0.00    +0.246 A 
ATOM     27  N   UNL     1     -39.142   6.334   7.045  1.00  0.00    -0.224 NA
ENDBRANCH  22  23
ENDBRANCH  10  22
ENDBRANCH   8   9
ENDBRANCH   7   8
ENDBRANCH   4   7
BRANCH   1  28
ATOM     28  N   UNL     1     -39.963  11.654  16.073  1.00  0.00    -0.368 N 
ATOM     29  C   UNL     1     -39.193  12.791  16.606  1.00  0.00    +0.138 C 
ATOM     30  C   UNL     1     -41.431  11.788  16.096  1.00  0.00    +0.138 C 
ATOM     31  C   UNL     1     -39.963  13.538  17.721  1.00  0.00    +0.138 C 
ATOM     32  C   UNL     1     -41.888  13.267  16.142  1.00  0.00    +0.138 C 
ATOM     33  N   UNL     1     -41.291  13.997  17.273  1.00  0.00    -0.368 N 
BRANCH  33  34
ATOM     34  C   UNL     1     -41.886  15.123  17.812  1.00  0.00    +0.037 A 
ATOM     35  C   UNL     1     -41.537  15.611  19.077  1.00  0.00    +0.028 A 
ATOM     36  C   UNL     1     -42.879  15.840  17.135  1.00  0.00    +0.028 A 
ATOM     37  C   UNL     1     -42.142  16.753  19.635  1.00  0.00    +0.029 A 
ATOM     38  C   UNL     1     -43.487  16.982  17.684  1.00  0.00    +0.029 A 
ATOM     39  C   UNL     1     -43.132  17.462  18.947  1.00  0.00    +0.052 A 
BRANCH  39  40
ATOM     40  N   UNL     1     -43.741  18.612  19.507  1.00  0.00    -0.250 N 
ATOM     41  C   UNL     1     -45.054  18.765  19.922  1.00  0.00    +0.350 C 
ATOM     42  C   UNL     1     -43.157  19.801  19.778  1.00  0.00    +0.231 C 
ATOM     43  O   UNL     1     -45.971  17.958  19.928  1.00  0.00    -0.246 OA
ATOM     44  N   UNL     1     -45.141  20.091  20.383  1.00  0.00    -0.210 N 
ATOM     45  N   UNL     1     -43.919  20.708  20.303  1.00  0.00    -0.158 NA
BRANCH  44  46
ATOM     46  C   UNL     1     -46.293  20.697  21.033  1.00  0.00    +0.110 C 
ATOM     47  C   UNL     1     -47.392  21.001  20.014  1.00  0.00    +0.033 C 
BRANCH  46  48
ATOM     48  C   UNL     1     -45.909  21.969  21.809  1.00  0.00    +0.024 C 
ATOM     49  C   UNL     1     -45.620  21.707  23.281  1.00  0.00    +0.006 C 
ENDBRANCH  46  48
ENDBRANCH  44  46
ENDBRANCH  39  40
ENDBRANCH  33  34
ENDBRANCH   1  28
TORSDOF 11
ENDMDL
MODEL 7
REMARK VINA RESULT:    -9.612      4.442     14.041
REMARK INTER + INTRA:         -17.015
REMARK INTER:                 -16.056
REMARK INTRA:                  -0.959
REMARK UNBOUND:                -1.221
REMARK SMILES CC[C@@H](C)n1ncn(-c2ccc(N3CCN(c4ccc(OC[C@H]5CO[C@](Cn6cncn6)(c6ccc(Cl)cc6Cl)O5)cc4)CC3)cc2)c1=O
REMARK SMILES IDX 17 1 18 2 43 3 20 4 19 5 42 6 21 7 22 8 23 9 26 10 41 11
REMARK SMILES IDX 25 12 24 13 33 14 39 15 38 16 34 17 36 18 35 19 40 20 37 21
REMARK SMILES IDX 27 22 28 23 32 24 29 25 31 26 30 27 16 28 15 29 44 30 14 31
REMARK SMILES IDX 45 32 13 33 12 34 11 35 46 36 10 37 47 38 9 39 8 40 48 41
REMARK SMILES IDX 7 42 49 43 5 44 6 45 3 46 4 47 2 48 1 49
REMARK H PARENT
ROOT
ATOM      1  C   UNL     1     -39.645  10.186  15.622  1.00  0.00    +0.037 A 
ATOM      2  C   UNL     1     -40.700   9.279  15.822  1.00  0.00    +0.030 A 
ATOM      3  C   UNL     1     -38.357   9.635  15.583  1.00  0.00    +0.030 A 
ATOM      4  C   UNL     1     -39.197   7.382  15.921  1.00  0.00    +0.119 A 
ATOM      5  C   UNL     1     -40.486   7.899  15.969  1.00  0.00    +0.048 A 
ATOM      6  C   UNL     1     -38.135   8.258  15.726  1.00  0.00    +0.048 A 
ENDROOT
BRANCH   4   7
ATOM      7  O   UNL     1     -38.845   6.069  16.047  1.00  0.00    -0.491 OA
BRANCH   7   8
ATOM      8  C   UNL     1     -38.823   5.281  14.852  1.00  0.00    +0.264 C 
BRANCH   8   9
ATOM      9  C   UNL     1     -38.608   6.219  13.669  1.00  0.00    +0.185 C 
ATOM     10  C   UNL     1     -39.460   6.815  11.632  1.00  0.00    +0.217 C 
ATOM     11  O   UNL     1     -39.840   6.477  12.979  1.00  0.00    -0.335 OA
ATOM     12  O   UNL     1     -38.099   6.371  11.425  1.00  0.00    -0.341 OA
ATOM     13  C   UNL     1     -37.749   5.620  12.588  1.00  0.00    +0.200 C 
BRANCH  10  14
ATOM     14  C   UNL     1     -39.518   8.341  11.455  1.00  0.00    +0.032 A 
ATOM     15  C   UNL     1     -38.555   9.075  10.729  1.00  0.00    +0.051 A 
ATOM     16  C   UNL     1     -38.655  10.466  10.597  1.00  0.00    +0.041 A 
ATOM     17  C   UNL     1     -40.568   9.072  12.057  1.00  0.00    +0.012 A 
ATOM     18  C   UNL     1     -39.709  11.150  11.191  1.00  0.00    +0.042 A 
ATOM     19  C   UNL     1     -40.665  10.459  11.924  1.00  0.00    +0.021 A 
ATOM     20 Cl   UNL     1     -37.179   8.342   9.978  1.00  0.00    -0.084 Cl
ATOM     21 Cl   UNL     1     -39.825  12.857  11.027  1.00  0.00    -0.084 Cl
ENDBRANCH  10  14
BRANCH  10  22
ATOM     22  C   UNL     1     -40.389   6.134  10.608  1.00  0.00    +0.217 C 
BRANCH  22  23
ATOM     23  N   UNL     1     -39.953   6.320   9.241  1.00  0.00    -0.247 N 
ATOM     24  N   UNL     1     -40.564   7.199   8.423  1.00  0.00    -0.160 NA
ATOM     25  C   UNL     1     -38.965   5.650   8.583  1.00  0.00    +0.219 A 
ATOM     26  C   UNL     1     -39.876   7.027   7.291  1.00  0.00    +0.246 A 
ATOM     27  N   UNL     1     -38.879   6.096   7.351  1.00  0.00    -0.224 NA
ENDBRANCH  22  23
ENDBRANCH  10  22
ENDBRANCH   8   9
ENDBRANCH   7   8
ENDBRANCH   4   7
BRANCH   1  28
ATOM     28  N   UNL     1     -39.872  11.544  15.483  1.00  0.00    -0.368 N 
ATOM     29  C   UNL     1     -41.189  12.078  15.098  1.00  0.00    +0.138 C 
ATOM     30  C   UNL     1     -38.856  12.534  15.885  1.00  0.00    +0.138 C 
ATOM     31  C   UNL     1     -41.081  13.489  14.474  1.00  0.00    +0.138 C 
ATOM     32  C   UNL     1     -39.485  13.863  16.367  1.00  0.00    +0.138 C 
ATOM     33  N   UNL     1     -40.393  14.443  15.363  1.00  0.00    -0.368 N 
BRANCH  33  34
ATOM     34  C   UNL     1     -40.677  15.797  15.329  1.00  0.00    +0.037 A 
ATOM     35  C   UNL     1     -41.044  16.505  16.479  1.00  0.00    +0.028 A 
ATOM     36  C   UNL     1     -40.625  16.542  14.145  1.00  0.00    +0.028 A 
ATOM     37  C   UNL     1     -41.340  17.880  16.452  1.00  0.00    +0.029 A 
ATOM     38  C   UNL     1     -40.917  17.917  14.110  1.00  0.00    +0.029 A 
ATOM     39  C   UNL     1     -41.282  18.615  15.264  1.00  0.00    +0.052 A 
BRANCH  39  40
ATOM     40  N   UNL     1     -41.578  20.000  15.235  1.00  0.00    -0.250 N 
ATOM     41  C   UNL     1     -42.789  20.607  14.946  1.00  0.00    +0.350 C 
ATOM     42  C   UNL     1     -40.740  21.025  15.511  1.00  0.00    +0.231 C 
ATOM     43  O   UNL     1     -43.871  20.106  14.676  1.00  0.00    -0.246 OA
ATOM     44  N   UNL     1     -42.541  21.988  15.043  1.00  0.00    -0.210 N 
ATOM     45  N   UNL     1     -41.245  22.215  15.429  1.00  0.00    -0.158 NA
BRANCH  44  46
ATOM     46  C   UNL     1     -43.535  23.045  14.943  1.00  0.00    +0.110 C 
ATOM     47  C   UNL     1     -44.616  22.874  16.012  1.00  0.00    +0.033 C 
BRANCH  46  48
ATOM     48  C   UNL     1     -44.167  23.107  13.542  1.00  0.00    +0.024 C 
ATOM     49  C   UNL     1     -43.141  23.284  12.431  1.00  0.00    +0.006 C 
ENDBRANCH  46  48
ENDBRANCH  44  46
ENDBRANCH  39  40
ENDBRANCH  33  34
ENDBRANCH   1  28
TORSDOF 11
ENDMDL
MODEL 8
REMARK VINA RESULT:    -9.217      6.552     14.103
REMARK INTER + INTRA:         -16.365
REMARK INTER:                 -15.092
REMARK INTRA:                  -1.274
REMARK UNBOUND:                -1.221
REMARK SMILES CC[C@@H](C)n1ncn(-c2ccc(N3CCN(c4ccc(OC[C@H]5CO[C@](Cn6cncn6)(c6ccc(Cl)cc6Cl)O5)cc4)CC3)cc2)c1=O
REMARK SMILES IDX 17 1 18 2 43 3 20 4 19 5 42 6 21 7 22 8 23 9 26 10 41 11
REMARK SMILES IDX 25 12 24 13 33 14 39 15 38 16 34 17 36 18 35 19 40 20 37 21
REMARK SMILES IDX 27 22 28 23 32 24 29 25 31 26 30 27 16 28 15 29 44 30 14 31
REMARK SMILES IDX 45 32 13 33 12 34 11 35 46 36 10 37 47 38 9 39 8 40 48 41
REMARK SMILES IDX 7 42 49 43 5 44 6 45 3 46 4 47 2 48 1 49
REMARK H PARENT
ROOT
ATOM      1  C   UNL     1     -38.974  10.559  15.173  1.00  0.00    +0.037 A 
ATOM      2  C   UNL     1     -37.851  10.862  14.385  1.00  0.00    +0.030 A 
ATOM      3  C   UNL     1     -39.409   9.226  15.140  1.00  0.00    +0.030 A 
ATOM      4  C   UNL     1     -37.643   8.578  13.606  1.00  0.00    +0.119 A 
ATOM      5  C   UNL     1     -37.191   9.893  13.613  1.00  0.00    +0.048 A 
ATOM      6  C   UNL     1     -38.755   8.252  14.374  1.00  0.00    +0.048 A 
ENDROOT
BRANCH   4   7
ATOM      7  O   UNL     1     -37.101   7.539  12.906  1.00  0.00    -0.491 OA
BRANCH   7   8
ATOM      8  C   UNL     1     -36.217   7.868  11.829  1.00  0.00    +0.264 C 
BRANCH   8   9
ATOM      9  C   UNL     1     -37.038   8.526  10.725  1.00  0.00    +0.185 C 
ATOM     10  C   UNL     1     -39.029   8.404   9.609  1.00  0.00    +0.217 C 
ATOM     11  O   UNL     1     -38.443   8.308  10.920  1.00  0.00    -0.335 OA
ATOM     12  O   UNL     1     -37.971   8.267   8.632  1.00  0.00    -0.341 OA
ATOM     13  C   UNL     1     -36.799   7.918   9.369  1.00  0.00    +0.200 C 
BRANCH  10  14
ATOM     14  C   UNL     1     -39.685   9.784   9.444  1.00  0.00    +0.032 A 
ATOM     15  C   UNL     1     -40.547  10.354  10.406  1.00  0.00    +0.051 A 
ATOM     16  C   UNL     1     -41.118  11.617  10.207  1.00  0.00    +0.041 A 
ATOM     17  C   UNL     1     -39.444  10.533   8.268  1.00  0.00    +0.012 A 
ATOM     18  C   UNL     1     -40.848  12.331   9.045  1.00  0.00    +0.042 A 
ATOM     19  C   UNL     1     -40.017  11.792   8.072  1.00  0.00    +0.021 A 
ATOM     20 Cl   UNL     1     -40.988   9.548  11.873  1.00  0.00    -0.084 Cl
ATOM     21 Cl   UNL     1     -41.554  13.879   8.806  1.00  0.00    -0.084 Cl
ENDBRANCH  10  14
BRANCH  10  22
ATOM     22  C   UNL     1     -40.081   7.297   9.393  1.00  0.00    +0.217 C 
BRANCH  22  23
ATOM     23  N   UNL     1     -39.885   6.157  10.264  1.00  0.00    -0.247 N 
ATOM     24  N   UNL     1     -38.871   5.292  10.071  1.00  0.00    -0.160 NA
ATOM     25  C   UNL     1     -40.666   5.764  11.309  1.00  0.00    +0.219 A 
ATOM     26  C   UNL     1     -39.084   4.413  11.054  1.00  0.00    +0.246 A 
ATOM     27  N   UNL     1     -40.166   4.675  11.844  1.00  0.00    -0.224 NA
ENDBRANCH  22  23
ENDBRANCH  10  22
ENDBRANCH   8   9
ENDBRANCH   7   8
ENDBRANCH   4   7
BRANCH   1  28
ATOM     28  N   UNL     1     -39.617  11.527  15.925  1.00  0.00    -0.368 N 
ATOM     29  C   UNL     1     -38.870  12.542  16.687  1.00  0.00    +0.138 C 
ATOM     30  C   UNL     1     -41.079  11.700  15.862  1.00  0.00    +0.138 C 
ATOM     31  C   UNL     1     -39.709  13.129  17.847  1.00  0.00    +0.138 C 
ATOM     32  C   UNL     1     -41.512  13.165  16.108  1.00  0.00    +0.138 C 
ATOM     33  N   UNL     1     -40.990  13.691  17.382  1.00  0.00    -0.368 N 
BRANCH  33  34
ATOM     34  C   UNL     1     -41.605  14.736  18.047  1.00  0.00    +0.037 A 
ATOM     35  C   UNL     1     -41.103  15.244  19.251  1.00  0.00    +0.028 A 
ATOM     36  C   UNL     1     -42.770  15.346  17.568  1.00  0.00    +0.028 A 
ATOM     37  C   UNL     1     -41.726  16.303  19.938  1.00  0.00    +0.029 A 
ATOM     38  C   UNL     1     -43.397  16.406  18.246  1.00  0.00    +0.029 A 
ATOM     39  C   UNL     1     -42.888  16.906  19.446  1.00  0.00    +0.052 A 
BRANCH  39  40
ATOM     40  N   UNL     1     -43.515  17.973  20.136  1.00  0.00    -0.250 N 
ATOM     41  C   UNL     1     -43.535  19.315  19.793  1.00  0.00    +0.350 C 
ATOM     42  C   UNL     1     -44.252  17.899  21.268  1.00  0.00    +0.231 C 
ATOM     43  O   UNL     1     -43.050  19.883  18.826  1.00  0.00    -0.246 OA
ATOM     44  N   UNL     1     -44.276  19.943  20.810  1.00  0.00    -0.210 N 
ATOM     45  N   UNL     1     -44.737  19.017  21.709  1.00  0.00    -0.158 NA
BRANCH  44  46
ATOM     46  C   UNL     1     -44.679  21.341  20.836  1.00  0.00    +0.110 C 
ATOM     47  C   UNL     1     -43.521  22.229  21.295  1.00  0.00    +0.033 C 
BRANCH  46  48
ATOM     48  C   UNL     1     -45.914  21.564  21.726  1.00  0.00    +0.024 C 
ATOM     49  C   UNL     1     -45.890  22.897  22.460  1.00  0.00    +0.006 C 
ENDBRANCH  46  48
ENDBRANCH  44  46
ENDBRANCH  39  40
ENDBRANCH  33  34
ENDBRANCH   1  28
TORSDOF 11
ENDMDL
MODEL 9
REMARK VINA RESULT:    -8.982      5.794     13.383
REMARK INTER + INTRA:         -15.980
REMARK INTER:                 -14.642
REMARK INTRA:                  -1.338
REMARK UNBOUND:                -1.221
REMARK SMILES CC[C@@H](C)n1ncn(-c2ccc(N3CCN(c4ccc(OC[C@H]5CO[C@](Cn6cncn6)(c6ccc(Cl)cc6Cl)O5)cc4)CC3)cc2)c1=O
REMARK SMILES IDX 17 1 18 2 43 3 20 4 19 5 42 6 21 7 22 8 23 9 26 10 41 11
REMARK SMILES IDX 25 12 24 13 33 14 39 15 38 16 34 17 36 18 35 19 40 20 37 21
REMARK SMILES IDX 27 22 28 23 32 24 29 25 31 26 30 27 16 28 15 29 44 30 14 31
REMARK SMILES IDX 45 32 13 33 12 34 11 35 46 36 10 37 47 38 9 39 8 40 48 41
REMARK SMILES IDX 7 42 49 43 5 44 6 45 3 46 4 47 2 48 1 49
REMARK H PARENT
ROOT
ATOM      1  C   UNL     1     -40.360  12.350  11.234  1.00  0.00    +0.037 A 
ATOM      2  C   UNL     1     -39.017  11.978  11.056  1.00  0.00    +0.030 A 
ATOM      3  C   UNL     1     -41.279  11.797  10.332  1.00  0.00    +0.030 A 
ATOM      4  C   UNL     1     -39.546  10.561   9.164  1.00  0.00    +0.119 A 
ATOM      5  C   UNL     1     -38.610  11.098  10.040  1.00  0.00    +0.048 A 
ATOM      6  C   UNL     1     -40.882  10.915   9.316  1.00  0.00    +0.048 A 
ENDROOT
BRANCH   4   7
ATOM      7  O   UNL     1     -39.292   9.697   8.137  1.00  0.00    -0.491 OA
BRANCH   7   8
ATOM      8  C   UNL     1     -38.923   8.360   8.486  1.00  0.00    +0.264 C 
BRANCH   8   9
ATOM      9  C   UNL     1     -39.404   8.089   9.907  1.00  0.00    +0.185 C 
ATOM     10  C   UNL     1     -38.795   7.129  11.891  1.00  0.00    +0.217 C 
ATOM     11  O   UNL     1     -38.300   7.944  10.813  1.00  0.00    -0.335 OA
ATOM     12  O   UNL     1     -40.004   6.475  11.442  1.00  0.00    -0.341 OA
ATOM     13  C   UNL     1     -40.116   6.771  10.049  1.00  0.00    +0.200 C 
BRANCH  10  14
ATOM     14  C   UNL     1     -39.130   8.026  13.094  1.00  0.00    +0.032 A 
ATOM     15  C   UNL     1     -38.207   8.920  13.676  1.00  0.00    +0.051 A 
ATOM     16  C   UNL     1     -38.564   9.716  14.772  1.00  0.00    +0.041 A 
ATOM     17  C   UNL     1     -40.416   7.953  13.678  1.00  0.00    +0.012 A 
ATOM     18  C   UNL     1     -39.842   9.629  15.311  1.00  0.00    +0.042 A 
ATOM     19  C   UNL     1     -40.770   8.748  14.771  1.00  0.00    +0.021 A 
ATOM     20 Cl   UNL     1     -36.577   9.091  13.118  1.00  0.00    -0.084 Cl
ATOM     21 Cl   UNL     1     -40.274  10.607  16.657  1.00  0.00    -0.084 Cl
ENDBRANCH  10  14
BRANCH  10  22
ATOM     22  C   UNL     1     -37.755   6.068  12.304  1.00  0.00    +0.217 C 
BRANCH  22  23
ATOM     23  N   UNL     1     -38.093   5.401  13.543  1.00  0.00    -0.247 N 
ATOM     24  N   UNL     1     -39.034   4.437  13.587  1.00  0.00    -0.160 NA
ATOM     25  C   UNL     1     -37.599   5.654  14.787  1.00  0.00    +0.219 A 
ATOM     26  C   UNL     1     -39.039   4.133  14.887  1.00  0.00    +0.246 A 
ATOM     27  N   UNL     1     -38.164   4.847  15.655  1.00  0.00    -0.224 NA
ENDBRANCH  22  23
ENDBRANCH  10  22
ENDBRANCH   8   9
ENDBRANCH   7   8
ENDBRANCH   4   7
BRANCH   1  28
ATOM     28  N   UNL     1     -40.745  13.223  12.238  1.00  0.00    -0.368 N 
ATOM     29  C   UNL     1     -41.045  14.638  11.965  1.00  0.00    +0.138 C 
ATOM     30  C   UNL     1     -41.044  12.740  13.598  1.00  0.00    +0.138 C 
ATOM     31  C   UNL     1     -40.899  15.515  13.232  1.00  0.00    +0.138 C 
ATOM     32  C   UNL     1     -42.111  13.606  14.311  1.00  0.00    +0.138 C 
ATOM     33  N   UNL     1     -41.734  15.030  14.346  1.00  0.00    -0.368 N 
BRANCH  33  34
ATOM     34  C   UNL     1     -42.229  15.894  15.307  1.00  0.00    +0.037 A 
ATOM     35  C   UNL     1     -41.777  15.866  16.631  1.00  0.00    +0.028 A 
ATOM     36  C   UNL     1     -43.218  16.841  15.021  1.00  0.00    +0.028 A 
ATOM     37  C   UNL     1     -42.280  16.736  17.615  1.00  0.00    +0.029 A 
ATOM     38  C   UNL     1     -43.724  17.717  15.998  1.00  0.00    +0.029 A 
ATOM     39  C   UNL     1     -43.266  17.681  17.317  1.00  0.00    +0.052 A 
BRANCH  39  40
ATOM     40  N   UNL     1     -43.773  18.559  18.306  1.00  0.00    -0.250 N 
ATOM     41  C   UNL     1     -44.776  18.315  19.230  1.00  0.00    +0.350 C 
ATOM     42  C   UNL     1     -43.363  19.820  18.574  1.00  0.00    +0.231 C 
ATOM     43  O   UNL     1     -45.431  17.302  19.424  1.00  0.00    -0.246 OA
ATOM     44  N   UNL     1     -44.900  19.509  19.963  1.00  0.00    -0.210 N 
ATOM     45  N   UNL     1     -43.974  20.428  19.541  1.00  0.00    -0.158 NA
BRANCH  44  46
ATOM     46  C   UNL     1     -45.743  19.713  21.130  1.00  0.00    +0.110 C 
ATOM     47  C   UNL     1     -46.662  20.919  20.930  1.00  0.00    +0.033 C 
BRANCH  46  48
ATOM     48  C   UNL     1     -44.912  19.875  22.415  1.00  0.00    +0.024 C 
ATOM     49  C   UNL     1     -44.322  18.564  22.915  1.00  0.00    +0.006 C 
ENDBRANCH  46  48
ENDBRANCH  44  46
ENDBRANCH  39  40
ENDBRANCH  33  34
ENDBRANCH   1  28
TORSDOF 11
ENDMDL
