MODEL 1
REMARK VINA RESULT:    -6.770      0.000      0.000
REMARK INTER + INTRA:         -12.532
REMARK INTER:                 -11.123
REMARK INTRA:                  -1.409
REMARK UNBOUND:                -1.409
REMARK SMILES CC[C@@H](C)n1ncn(-c2ccc(N3CCN(c4ccc(OC[C@H]5CO[C@](Cn6cncn6)(c6ccc(Cl)cc6Cl)O5)cc4)CC3)cc2)c1=O
REMARK SMILES IDX 17 1 18 2 43 3 20 4 19 5 42 6 21 7 22 8 23 9 26 10 41 11
REMARK SMILES IDX 25 12 24 13 33 14 39 15 38 16 34 17 36 18 35 19 40 20 37 21
REMARK SMILES IDX 27 22 28 23 32 24 29 25 31 26 30 27 16 28 15 29 44 30 14 31
REMARK SMILES IDX 45 32 13 33 12 34 11 35 46 36 10 37 47 38 9 39 8 40 48 41
REMARK SMILES IDX 7 42 49 43 5 44 6 45 3 46 4 47 2 48 1 49
REMARK H PARENT
ROOT
ATOM      1  C   UNL     1      -1.768  14.552  -5.486  1.00  0.00    +0.037 A 
ATOM      2  C   UNL     1      -0.574  15.178  -5.881  1.00  0.00    +0.030 A 
ATOM      3  C   UNL     1      -2.575  14.054  -6.518  1.00  0.00    +0.030 A 
ATOM      4  C   UNL     1      -1.017  14.787  -8.230  1.00  0.00    +0.119 A 
ATOM      5  C   UNL     1      -0.198  15.296  -7.229  1.00  0.00    +0.048 A 
ATOM      6  C   UNL     1      -2.206  14.166  -7.866  1.00  0.00    +0.048 A 
ENDROOT
BRANCH   4   7
ATOM      7  O   UNL     1      -0.777  14.831  -9.573  1.00  0.00    -0.491 OA
BRANCH   7   8
ATOM      8  C   UNL     1       0.587  14.961  -9.988  1.00  0.00    +0.264 C 
BRANCH   8   9
ATOM      9  C   UNL     1       0.989  13.679 -10.709  1.00  0.00    +0.185 C 
ATOM     10  C   UNL     1       2.789  12.530 -11.526  1.00  0.00    +0.217 C 
ATOM     11  O   UNL     1       2.342  13.311 -10.403  1.00  0.00    -0.335 OA
ATOM     12  O   UNL     1       1.887  12.774 -12.630  1.00  0.00    -0.341 OA
ATOM     13  C   UNL     1       1.023  13.828 -12.206  1.00  0.00    +0.200 C 
BRANCH  10  14
ATOM     14  C   UNL     1       2.735  11.037 -11.160  1.00  0.00    +0.032 A 
ATOM     15  C   UNL     1       3.127  10.533  -9.902  1.00  0.00    +0.051 A 
ATOM     16  C   UNL     1       3.058   9.162  -9.619  1.00  0.00    +0.041 A 
ATOM     17  C   UNL     1       2.295  10.100 -12.124  1.00  0.00    +0.012 A 
ATOM     18  C   UNL     1       2.607   8.271 -10.586  1.00  0.00    +0.042 A 
ATOM     19  C   UNL     1       2.229   8.734 -11.839  1.00  0.00    +0.021 A 
ATOM     20 Cl   UNL     1       3.740  11.536  -8.631  1.00  0.00    -0.084 Cl
ATOM     21 Cl   UNL     1       2.528   6.591 -10.234  1.00  0.00    -0.084 Cl
ENDBRANCH  10  14
BRANCH  10  22
ATOM     22  C   UNL     1       4.224  12.917 -11.933  1.00  0.00    +0.217 C 
BRANCH  22  23
ATOM     23  N   UNL     1       4.642  14.189 -11.380  1.00  0.00    -0.247 N 
ATOM     24  N   UNL     1       4.417  15.346 -12.032  1.00  0.00    -0.160 NA
ATOM     25  C   UNL     1       5.331  14.409 -10.225  1.00  0.00    +0.219 A 
ATOM     26  C   UNL     1       4.973  16.230 -11.200  1.00  0.00    +0.246 A 
ATOM     27  N   UNL     1       5.532  15.697 -10.074  1.00  0.00    -0.224 NA
ENDBRANCH  22  23
ENDBRANCH  10  22
ENDBRANCH   8   9
ENDBRANCH   7   8
ENDBRANCH   4   7
BRANCH   1  28
ATOM     28  N   UNL     1      -2.127  14.448  -4.152  1.00  0.00    -0.368 N 
ATOM     29  C   UNL     1      -2.059  15.599  -3.237  1.00  0.00    +0.138 C 
ATOM     30  C   UNL     1      -2.761  13.226  -3.625  1.00  0.00    +0.138 C 
ATOM     31  C   UNL     1      -1.954  15.155  -1.758  1.00  0.00    +0.138 C 
ATOM     32  C   UNL     1      -3.723  13.522  -2.449  1.00  0.00    +0.138 C 
ATOM     33  N   UNL     1      -3.059  14.262  -1.362  1.00  0.00    -0.368 N 
BRANCH  33  34
ATOM     34  C   UNL     1      -3.518  14.215  -0.058  1.00  0.00    +0.037 A 
ATOM     35  C   UNL     1      -4.280  13.142   0.420  1.00  0.00    +0.028 A 
ATOM     36  C   UNL     1      -3.260  15.236   0.863  1.00  0.00    +0.028 A 
ATOM     37  C   UNL     1      -4.756  13.088   1.743  1.00  0.00    +0.029 A 
ATOM     38  C   UNL     1      -3.730  15.189   2.187  1.00  0.00    +0.029 A 
ATOM     39  C   UNL     1      -4.489  14.114   2.655  1.00  0.00    +0.052 A 
BRANCH  39  40
ATOM     40  N   UNL     1      -4.967  14.061   3.987  1.00  0.00    -0.250 N 
ATOM     41  C   UNL     1      -6.270  13.872   4.419  1.00  0.00    +0.350 C 
ATOM     42  C   UNL     1      -4.242  14.160   5.124  1.00  0.00    +0.231 C 
ATOM     43  O   UNL     1      -7.289  13.686   3.772  1.00  0.00    -0.246 OA
ATOM     44  N   UNL     1      -6.202  13.916   5.823  1.00  0.00    -0.210 N 
ATOM     45  N   UNL     1      -4.903  14.071   6.235  1.00  0.00    -0.158 NA
BRANCH  44  46
ATOM     46  C   UNL     1      -7.297  13.648   6.742  1.00  0.00    +0.110 C 
ATOM     47  C   UNL     1      -7.393  14.744   7.804  1.00  0.00    +0.033 C 
BRANCH  46  48
ATOM     48  C   UNL     1      -7.164  12.265   7.404  1.00  0.00    +0.024 C 
ATOM     49  C   UNL     1      -7.246  11.115   6.410  1.00  0.00    +0.006 C 
ENDBRANCH  46  48
ENDBRANCH  44  46
ENDBRANCH  39  40
ENDBRANCH  33  34
ENDBRANCH   1  28
TORSDOF 11
ENDMDL
MODEL 2
REMARK VINA RESULT:    -6.601      1.710      2.042
REMARK INTER + INTRA:         -12.254
REMARK INTER:                 -10.600
REMARK INTRA:                  -1.654
REMARK UNBOUND:                -1.409
REMARK SMILES CC[C@@H](C)n1ncn(-c2ccc(N3CCN(c4ccc(OC[C@H]5CO[C@](Cn6cncn6)(c6ccc(Cl)cc6Cl)O5)cc4)CC3)cc2)c1=O
REMARK SMILES IDX 17 1 18 2 43 3 20 4 19 5 42 6 21 7 22 8 23 9 26 10 41 11
REMARK SMILES IDX 25 12 24 13 33 14 39 15 38 16 34 17 36 18 35 19 40 20 37 21
REMARK SMILES IDX 27 22 28 23 32 24 29 25 31 26 30 27 16 28 15 29 44 30 14 31
REMARK SMILES IDX 45 32 13 33 12 34 11 35 46 36 10 37 47 38 9 39 8 40 48 41
REMARK SMILES IDX 7 42 49 43 5 44 6 45 3 46 4 47 2 48 1 49
REMARK H PARENT
ROOT
ATOM      1  C   UNL     1       0.525  15.582  -5.471  1.00  0.00    +0.037 A 
ATOM      2  C   UNL     1       1.869  15.782  -5.828  1.00  0.00    +0.030 A 
ATOM      3  C   UNL     1      -0.369  15.365  -6.530  1.00  0.00    +0.030 A 
ATOM      4  C   UNL     1       1.393  15.538  -8.191  1.00  0.00    +0.119 A 
ATOM      5  C   UNL     1       2.302  15.761  -7.164  1.00  0.00    +0.048 A 
ATOM      6  C   UNL     1       0.055  15.340  -7.865  1.00  0.00    +0.048 A 
ENDROOT
BRANCH   4   7
ATOM      7  O   UNL     1       1.674  15.491  -9.526  1.00  0.00    -0.491 OA
BRANCH   7   8
ATOM      8  C   UNL     1       0.636  15.027 -10.395  1.00  0.00    +0.264 C 
BRANCH   8   9
ATOM      9  C   UNL     1       1.106  13.732 -11.048  1.00  0.00    +0.185 C 
ATOM     10  C   UNL     1       2.976  12.531 -11.586  1.00  0.00    +0.217 C 
ATOM     11  O   UNL     1       2.388  13.329 -10.543  1.00  0.00    -0.335 OA
ATOM     12  O   UNL     1       2.257  12.795 -12.813  1.00  0.00    -0.341 OA
ATOM     13  C   UNL     1       1.368  13.874 -12.523  1.00  0.00    +0.200 C 
BRANCH  10  14
ATOM     14  C   UNL     1       2.829  11.042 -11.232  1.00  0.00    +0.032 A 
ATOM     15  C   UNL     1       3.103  10.519  -9.950  1.00  0.00    +0.051 A 
ATOM     16  C   UNL     1       2.952   9.153  -9.680  1.00  0.00    +0.041 A 
ATOM     17  C   UNL     1       2.420  10.127 -12.230  1.00  0.00    +0.012 A 
ATOM     18  C   UNL     1       2.534   8.284 -10.682  1.00  0.00    +0.042 A 
ATOM     19  C   UNL     1       2.271   8.765 -11.957  1.00  0.00    +0.021 A 
ATOM     20 Cl   UNL     1       3.664  11.492  -8.634  1.00  0.00    -0.084 Cl
ATOM     21 Cl   UNL     1       2.353   6.609 -10.343  1.00  0.00    -0.084 Cl
ENDBRANCH  10  14
BRANCH  10  22
ATOM     22  C   UNL     1       4.467  12.879 -11.774  1.00  0.00    +0.217 C 
BRANCH  22  23
ATOM     23  N   UNL     1       4.868  14.055 -11.032  1.00  0.00    -0.247 N 
ATOM     24  N   UNL     1       5.434  13.958  -9.814  1.00  0.00    -0.160 NA
ATOM     25  C   UNL     1       4.700  15.360 -11.386  1.00  0.00    +0.219 A 
ATOM     26  C   UNL     1       5.608  15.245  -9.500  1.00  0.00    +0.246 A 
ATOM     27  N   UNL     1       5.184  16.136 -10.444  1.00  0.00    -0.224 NA
ENDBRANCH  22  23
ENDBRANCH  10  22
ENDBRANCH   8   9
ENDBRANCH   7   8
ENDBRANCH   4   7
BRANCH   1  28
ATOM     28  N   UNL     1       0.112  15.611  -4.150  1.00  0.00    -0.368 N 
ATOM     29  C   UNL     1      -0.468  16.820  -3.543  1.00  0.00    +0.138 C 
ATOM     30  C   UNL     1       0.070  14.382  -3.336  1.00  0.00    +0.138 C 
ATOM     31  C   UNL     1      -0.332  16.814  -2.001  1.00  0.00    +0.138 C 
ATOM     32  C   UNL     1      -1.042  14.426  -2.259  1.00  0.00    +0.138 C 
ATOM     33  N   UNL     1      -0.926  15.611  -1.391  1.00  0.00    -0.368 N 
BRANCH  33  34
ATOM     34  C   UNL     1      -1.450  15.633  -0.111  1.00  0.00    +0.037 A 
ATOM     35  C   UNL     1      -1.613  14.464   0.642  1.00  0.00    +0.028 A 
ATOM     36  C   UNL     1      -1.860  16.819   0.509  1.00  0.00    +0.028 A 
ATOM     37  C   UNL     1      -2.151  14.477   1.942  1.00  0.00    +0.029 A 
ATOM     38  C   UNL     1      -2.396  16.841   1.808  1.00  0.00    +0.029 A 
ATOM     39  C   UNL     1      -2.554  15.669   2.552  1.00  0.00    +0.052 A 
BRANCH  39  40
ATOM     40  N   UNL     1      -3.095  15.684   3.861  1.00  0.00    -0.250 N 
ATOM     41  C   UNL     1      -4.428  15.640   4.234  1.00  0.00    +0.350 C 
ATOM     42  C   UNL     1      -2.415  15.719   5.030  1.00  0.00    +0.231 C 
ATOM     43  O   UNL     1      -5.432  15.555   3.541  1.00  0.00    -0.246 OA
ATOM     44  N   UNL     1      -4.420  15.693   5.639  1.00  0.00    -0.210 N 
ATOM     45  N   UNL     1      -3.132  15.714   6.110  1.00  0.00    -0.158 NA
BRANCH  44  46
ATOM     46  C   UNL     1      -5.578  15.555   6.508  1.00  0.00    +0.110 C 
ATOM     47  C   UNL     1      -5.608  16.673   7.551  1.00  0.00    +0.033 C 
BRANCH  46  48
ATOM     48  C   UNL     1      -5.619  14.177   7.192  1.00  0.00    +0.024 C 
ATOM     49  C   UNL     1      -5.594  13.018   6.205  1.00  0.00    +0.006 C 
ENDBRANCH  46  48
ENDBRANCH  44  46
ENDBRANCH  39  40
ENDBRANCH  33  34
ENDBRANCH   1  28
TORSDOF 11
ENDMDL
MODEL 3
REMARK VINA RESULT:    -6.329      2.051      2.817
REMARK INTER + INTRA:         -11.808
REMARK INTER:                 -10.492
REMARK INTRA:                  -1.316
REMARK UNBOUND:                -1.409
REMARK SMILES CC[C@@H](C)n1ncn(-c2ccc(N3CCN(c4ccc(OC[C@H]5CO[C@](Cn6cncn6)(c6ccc(Cl)cc6Cl)O5)cc4)CC3)cc2)c1=O
REMARK SMILES IDX 17 1 18 2 43 3 20 4 19 5 42 6 21 7 22 8 23 9 26 10 41 11
REMARK SMILES IDX 25 12 24 13 33 14 39 15 38 16 34 17 36 18 35 19 40 20 37 21
REMARK SMILES IDX 27 22 28 23 32 24 29 25 31 26 30 27 16 28 15 29 44 30 14 31
REMARK SMILES IDX 45 32 13 33 12 34 11 35 46 36 10 37 47 38 9 39 8 40 48 41
REMARK SMILES IDX 7 42 49 43 5 44 6 45 3 46 4 47 2 48 1 49
REMARK H PARENT
ROOT
ATOM      1  C   UNL     1       0.550  14.860  -3.162  1.00  0.00    +0.037 A 
ATOM      2  C   UNL     1       0.207  15.595  -4.309  1.00  0.00    +0.030 A 
ATOM      3  C   UNL     1       1.862  14.367  -3.114  1.00  0.00    +0.030 A 
ATOM      4  C   UNL     1       2.415  15.334  -5.271  1.00  0.00    +0.119 A 
ATOM      5  C   UNL     1       1.120  15.832  -5.350  1.00  0.00    +0.048 A 
ATOM      6  C   UNL     1       2.780  14.601  -4.147  1.00  0.00    +0.048 A 
ENDROOT
BRANCH   4   7
ATOM      7  O   UNL     1       3.400  15.489  -6.203  1.00  0.00    -0.491 OA
BRANCH   7   8
ATOM      8  C   UNL     1       3.051  16.163  -7.416  1.00  0.00    +0.264 C 
BRANCH   8   9
ATOM      9  C   UNL     1       2.597  15.117  -8.428  1.00  0.00    +0.185 C 
ATOM     10  C   UNL     1       3.004  14.310 -10.529  1.00  0.00    +0.217 C 
ATOM     11  O   UNL     1       3.657  14.774  -9.333  1.00  0.00    -0.335 OA
ATOM     12  O   UNL     1       1.627  14.752 -10.488  1.00  0.00    -0.341 OA
ATOM     13  C   UNL     1       1.525  15.618  -9.358  1.00  0.00    +0.200 C 
BRANCH  10  14
ATOM     14  C   UNL     1       3.033  12.774 -10.562  1.00  0.00    +0.032 A 
ATOM     15  C   UNL     1       4.227  12.021 -10.569  1.00  0.00    +0.051 A 
ATOM     16  C   UNL     1       4.199  10.621 -10.599  1.00  0.00    +0.041 A 
ATOM     17  C   UNL     1       1.816  12.055 -10.609  1.00  0.00    +0.012 A 
ATOM     18  C   UNL     1       2.984   9.947 -10.631  1.00  0.00    +0.042 A 
ATOM     19  C   UNL     1       1.791  10.658 -10.640  1.00  0.00    +0.021 A 
ATOM     20 Cl   UNL     1       5.800  12.745 -10.569  1.00  0.00    -0.084 Cl
ATOM     21 Cl   UNL     1       2.956   8.229 -10.670  1.00  0.00    -0.084 Cl
ENDBRANCH  10  14
BRANCH  10  22
ATOM     22  C   UNL     1       3.691  14.874 -11.788  1.00  0.00    +0.217 C 
BRANCH  22  23
ATOM     23  N   UNL     1       4.328  16.153 -11.557  1.00  0.00    -0.247 N 
ATOM     24  N   UNL     1       3.631  17.305 -11.615  1.00  0.00    -0.160 NA
ATOM     25  C   UNL     1       5.647  16.396 -11.318  1.00  0.00    +0.219 A 
ATOM     26  C   UNL     1       4.589  18.205 -11.374  1.00  0.00    +0.246 A 
ATOM     27  N   UNL     1       5.836  17.687 -11.173  1.00  0.00    -0.224 NA
ENDBRANCH  22  23
ENDBRANCH  10  22
ENDBRANCH   8   9
ENDBRANCH   7   8
ENDBRANCH   4   7
BRANCH   1  28
ATOM     28  N   UNL     1      -0.362  14.631  -2.147  1.00  0.00    -0.368 N 
ATOM     29  C   UNL     1       0.063  14.230  -0.795  1.00  0.00    +0.138 C 
ATOM     30  C   UNL     1      -1.792  14.946  -2.318  1.00  0.00    +0.138 C 
ATOM     31  C   UNL     1      -1.068  13.507  -0.024  1.00  0.00    +0.138 C 
ATOM     32  C   UNL     1      -2.472  15.345  -0.986  1.00  0.00    +0.138 C 
ATOM     33  N   UNL     1      -2.297  14.317   0.055  1.00  0.00    -0.368 N 
BRANCH  33  34
ATOM     34  C   UNL     1      -3.177  14.193   1.115  1.00  0.00    +0.037 A 
ATOM     35  C   UNL     1      -2.904  14.745   2.372  1.00  0.00    +0.028 A 
ATOM     36  C   UNL     1      -4.390  13.503   1.004  1.00  0.00    +0.028 A 
ATOM     37  C   UNL     1      -3.791  14.619   3.457  1.00  0.00    +0.029 A 
ATOM     38  C   UNL     1      -5.282  13.374   2.082  1.00  0.00    +0.029 A 
ATOM     39  C   UNL     1      -5.001  13.929   3.333  1.00  0.00    +0.052 A 
BRANCH  39  40
ATOM     40  N   UNL     1      -5.895  13.802   4.424  1.00  0.00    -0.250 N 
ATOM     41  C   UNL     1      -6.110  12.693   5.226  1.00  0.00    +0.350 C 
ATOM     42  C   UNL     1      -6.714  14.752   4.930  1.00  0.00    +0.231 C 
ATOM     43  O   UNL     1      -5.576  11.595   5.201  1.00  0.00    -0.246 OA
ATOM     44  N   UNL     1      -7.100  13.089   6.143  1.00  0.00    -0.210 N 
ATOM     45  N   UNL     1      -7.438  14.403   5.946  1.00  0.00    -0.158 NA
BRANCH  44  46
ATOM     46  C   UNL     1      -7.582  12.309   7.273  1.00  0.00    +0.110 C 
ATOM     47  C   UNL     1      -8.369  11.089   6.791  1.00  0.00    +0.033 C 
BRANCH  46  48
ATOM     48  C   UNL     1      -8.434  13.157   8.232  1.00  0.00    +0.024 C 
ATOM     49  C   UNL     1      -8.936  12.373   9.438  1.00  0.00    +0.006 C 
ENDBRANCH  46  48
ENDBRANCH  44  46
ENDBRANCH  39  40
ENDBRANCH  33  34
ENDBRANCH   1  28
TORSDOF 11
ENDMDL
MODEL 4
REMARK VINA RESULT:    -6.259      1.722      2.241
REMARK INTER + INTRA:         -11.693
REMARK INTER:                 -10.929
REMARK INTRA:                  -0.764
REMARK UNBOUND:                -1.409
REMARK SMILES CC[C@@H](C)n1ncn(-c2ccc(N3CCN(c4ccc(OC[C@H]5CO[C@](Cn6cncn6)(c6ccc(Cl)cc6Cl)O5)cc4)CC3)cc2)c1=O
REMARK SMILES IDX 17 1 18 2 43 3 20 4 19 5 42 6 21 7 22 8 23 9 26 10 41 11
REMARK SMILES IDX 25 12 24 13 33 14 39 15 38 16 34 17 36 18 35 19 40 20 37 21
REMARK SMILES IDX 27 22 28 23 32 24 29 25 31 26 30 27 16 28 15 29 44 30 14 31
REMARK SMILES IDX 45 32 13 33 12 34 11 35 46 36 10 37 47 38 9 39 8 40 48 41
REMARK SMILES IDX 7 42 49 43 5 44 6 45 3 46 4 47 2 48 1 49
REMARK H PARENT
ROOT
ATOM      1  C   UNL     1       0.576  15.223  -4.133  1.00  0.00    +0.037 A 
ATOM      2  C   UNL     1       1.980  15.172  -4.160  1.00  0.00    +0.030 A 
ATOM      3  C   UNL     1      -0.054  15.527  -5.348  1.00  0.00    +0.030 A 
ATOM      4  C   UNL     1       2.064  15.697  -6.523  1.00  0.00    +0.119 A 
ATOM      5  C   UNL     1       2.717  15.403  -5.332  1.00  0.00    +0.048 A 
ATOM      6  C   UNL     1       0.674  15.757  -6.523  1.00  0.00    +0.048 A 
ENDROOT
BRANCH   4   7
ATOM      7  O   UNL     1       2.651  15.942  -7.731  1.00  0.00    -0.491 OA
BRANCH   7   8
ATOM      8  C   UNL     1       3.656  15.021  -8.166  1.00  0.00    +0.264 C 
BRANCH   8   9
ATOM      9  C   UNL     1       3.002  14.017  -9.110  1.00  0.00    +0.185 C 
ATOM     10  C   UNL     1       3.121  13.150 -11.222  1.00  0.00    +0.217 C 
ATOM     11  O   UNL     1       3.930  13.555 -10.103  1.00  0.00    -0.335 OA
ATOM     12  O   UNL     1       1.807  13.734 -11.062  1.00  0.00    -0.341 OA
ATOM     13  C   UNL     1       1.904  14.618  -9.945  1.00  0.00    +0.200 C 
BRANCH  10  14
ATOM     14  C   UNL     1       2.988  11.618 -11.226  1.00  0.00    +0.032 A 
ATOM     15  C   UNL     1       2.016  10.926 -11.979  1.00  0.00    +0.051 A 
ATOM     16  C   UNL     1       1.939   9.527 -11.948  1.00  0.00    +0.041 A 
ATOM     17  C   UNL     1       3.860  10.843 -10.426  1.00  0.00    +0.012 A 
ATOM     18  C   UNL     1       2.821   8.796 -11.161  1.00  0.00    +0.042 A 
ATOM     19  C   UNL     1       3.779   9.448 -10.397  1.00  0.00    +0.021 A 
ATOM     20 Cl   UNL     1       0.840  11.726 -12.966  1.00  0.00    -0.084 Cl
ATOM     21 Cl   UNL     1       2.719   7.081 -11.126  1.00  0.00    -0.084 Cl
ENDBRANCH  10  14
BRANCH  10  22
ATOM     22  C   UNL     1       3.740  13.625 -12.552  1.00  0.00    +0.217 C 
BRANCH  22  23
ATOM     23  N   UNL     1       4.334  14.942 -12.457  1.00  0.00    -0.247 N 
ATOM     24  N   UNL     1       5.547  15.126 -11.901  1.00  0.00    -0.160 NA
ATOM     25  C   UNL     1       3.786  16.131 -12.832  1.00  0.00    +0.219 A 
ATOM     26  C   UNL     1       5.682  16.452 -11.996  1.00  0.00    +0.246 A 
ATOM     27  N   UNL     1       4.630  17.103 -12.574  1.00  0.00    -0.224 NA
ENDBRANCH  22  23
ENDBRANCH  10  22
ENDBRANCH   8   9
ENDBRANCH   7   8
ENDBRANCH   4   7
BRANCH   1  28
ATOM     28  N   UNL     1      -0.137  14.996  -2.968  1.00  0.00    -0.368 N 
ATOM     29  C   UNL     1       0.531  14.845  -1.665  1.00  0.00    +0.138 C 
ATOM     30  C   UNL     1      -1.609  15.071  -2.945  1.00  0.00    +0.138 C 
ATOM     31  C   UNL     1      -0.346  14.070  -0.652  1.00  0.00    +0.138 C 
ATOM     32  C   UNL     1      -2.155  15.536  -1.574  1.00  0.00    +0.138 C 
ATOM     33  N   UNL     1      -1.670  14.691  -0.469  1.00  0.00    -0.368 N 
BRANCH  33  34
ATOM     34  C   UNL     1      -2.362  14.579   0.724  1.00  0.00    +0.037 A 
ATOM     35  C   UNL     1      -3.624  13.977   0.793  1.00  0.00    +0.028 A 
ATOM     36  C   UNL     1      -1.853  15.067   1.932  1.00  0.00    +0.028 A 
ATOM     37  C   UNL     1      -4.337  13.864   2.001  1.00  0.00    +0.029 A 
ATOM     38  C   UNL     1      -2.558  14.956   3.144  1.00  0.00    +0.029 A 
ATOM     39  C   UNL     1      -3.816  14.353   3.203  1.00  0.00    +0.052 A 
BRANCH  39  40
ATOM     40  N   UNL     1      -4.533  14.239   4.419  1.00  0.00    -0.250 N 
ATOM     41  C   UNL     1      -5.842  13.822   4.603  1.00  0.00    +0.350 C 
ATOM     42  C   UNL     1      -4.078  14.492   5.668  1.00  0.00    +0.231 C 
ATOM     43  O   UNL     1      -6.663  13.439   3.783  1.00  0.00    -0.246 OA
ATOM     44  N   UNL     1      -6.063  13.905   5.989  1.00  0.00    -0.210 N 
ATOM     45  N   UNL     1      -4.921  14.304   6.634  1.00  0.00    -0.158 NA
BRANCH  44  46
ATOM     46  C   UNL     1      -7.255  13.458   6.693  1.00  0.00    +0.110 C 
ATOM     47  C   UNL     1      -7.503  14.317   7.935  1.00  0.00    +0.033 C 
BRANCH  46  48
ATOM     48  C   UNL     1      -7.170  11.970   7.075  1.00  0.00    +0.024 C 
ATOM     49  C   UNL     1      -8.182  11.567   8.139  1.00  0.00    +0.006 C 
ENDBRANCH  46  48
ENDBRANCH  44  46
ENDBRANCH  39  40
ENDBRANCH  33  34
ENDBRANCH   1  28
TORSDOF 11
ENDMDL
MODEL 5
REMARK VINA RESULT:    -6.237      1.646      2.020
REMARK INTER + INTRA:         -11.656
REMARK INTER:                 -10.245
REMARK INTRA:                  -1.411
REMARK UNBOUND:                -1.409
REMARK SMILES CC[C@@H](C)n1ncn(-c2ccc(N3CCN(c4ccc(OC[C@H]5CO[C@](Cn6cncn6)(c6ccc(Cl)cc6Cl)O5)cc4)CC3)cc2)c1=O
REMARK SMILES IDX 17 1 18 2 43 3 20 4 19 5 42 6 21 7 22 8 23 9 26 10 41 11
REMARK SMILES IDX 25 12 24 13 33 14 39 15 38 16 34 17 36 18 35 19 40 20 37 21
REMARK SMILES IDX 27 22 28 23 32 24 29 25 31 26 30 27 16 28 15 29 44 30 14 31
REMARK SMILES IDX 45 32 13 33 12 34 11 35 46 36 10 37 47 38 9 39 8 40 48 41
REMARK SMILES IDX 7 42 49 43 5 44 6 45 3 46 4 47 2 48 1 49
REMARK H PARENT
ROOT
ATOM      1  C   UNL     1      -1.861  14.761  -5.421  1.00  0.00    +0.037 A 
ATOM      2  C   UNL     1      -0.656  15.304  -5.897  1.00  0.00    +0.030 A 
ATOM      3  C   UNL     1      -2.719  14.219  -6.389  1.00  0.00    +0.030 A 
ATOM      4  C   UNL     1      -1.187  14.752  -8.195  1.00  0.00    +0.119 A 
ATOM      5  C   UNL     1      -0.318  15.303  -7.260  1.00  0.00    +0.048 A 
ATOM      6  C   UNL     1      -2.388  14.211  -7.751  1.00  0.00    +0.048 A 
ENDROOT
BRANCH   4   7
ATOM      7  O   UNL     1      -0.987  14.683  -9.544  1.00  0.00    -0.491 OA
BRANCH   7   8
ATOM      8  C   UNL     1       0.350  14.875 -10.016  1.00  0.00    +0.264 C 
BRANCH   8   9
ATOM      9  C   UNL     1       0.778  13.612 -10.757  1.00  0.00    +0.185 C 
ATOM     10  C   UNL     1       2.597  12.528 -11.617  1.00  0.00    +0.217 C 
ATOM     11  O   UNL     1       2.147  13.285 -10.479  1.00  0.00    -0.335 OA
ATOM     12  O   UNL     1       1.668  12.753 -12.703  1.00  0.00    -0.341 OA
ATOM     13  C   UNL     1       0.780  13.776 -12.253  1.00  0.00    +0.200 C 
BRANCH  10  14
ATOM     14  C   UNL     1       2.598  11.031 -11.265  1.00  0.00    +0.032 A 
ATOM     15  C   UNL     1       3.093  10.521 -10.046  1.00  0.00    +0.051 A 
ATOM     16  C   UNL     1       3.070   9.147  -9.773  1.00  0.00    +0.041 A 
ATOM     17  C   UNL     1       2.101  10.096 -12.202  1.00  0.00    +0.012 A 
ATOM     18  C   UNL     1       2.561   8.258 -10.713  1.00  0.00    +0.042 A 
ATOM     19  C   UNL     1       2.080   8.726 -11.928  1.00  0.00    +0.021 A 
ATOM     20 Cl   UNL     1       3.784  11.523  -8.815  1.00  0.00    -0.084 Cl
ATOM     21 Cl   UNL     1       2.537   6.573 -10.374  1.00  0.00    -0.084 Cl
ENDBRANCH  10  14
BRANCH  10  22
ATOM     22  C   UNL     1       4.012  12.964 -12.047  1.00  0.00    +0.217 C 
BRANCH  22  23
ATOM     23  N   UNL     1       4.391  14.253 -11.509  1.00  0.00    -0.247 N 
ATOM     24  N   UNL     1       3.927  15.400 -12.043  1.00  0.00    -0.160 NA
ATOM     25  C   UNL     1       5.258  14.509 -10.489  1.00  0.00    +0.219 A 
ATOM     26  C   UNL     1       4.535  16.311 -11.279  1.00  0.00    +0.246 A 
ATOM     27  N   UNL     1       5.348  15.805 -10.306  1.00  0.00    -0.224 NA
ENDBRANCH  22  23
ENDBRANCH  10  22
ENDBRANCH   8   9
ENDBRANCH   7   8
ENDBRANCH   4   7
BRANCH   1  28
ATOM     28  N   UNL     1      -2.182  14.774  -4.075  1.00  0.00    -0.368 N 
ATOM     29  C   UNL     1      -1.153  14.653  -3.029  1.00  0.00    +0.138 C 
ATOM     30  C   UNL     1      -3.548  15.086  -3.617  1.00  0.00    +0.138 C 
ATOM     31  C   UNL     1      -1.742  14.139  -1.694  1.00  0.00    +0.138 C 
ATOM     32  C   UNL     1      -3.563  15.773  -2.230  1.00  0.00    +0.138 C 
ATOM     33  N   UNL     1      -2.852  14.980  -1.211  1.00  0.00    -0.368 N 
BRANCH  33  34
ATOM     34  C   UNL     1      -3.131  15.105   0.138  1.00  0.00    +0.037 A 
ATOM     35  C   UNL     1      -4.239  15.825   0.601  1.00  0.00    +0.028 A 
ATOM     36  C   UNL     1      -2.323  14.531   1.125  1.00  0.00    +0.028 A 
ATOM     37  C   UNL     1      -4.527  15.962   1.971  1.00  0.00    +0.029 A 
ATOM     38  C   UNL     1      -2.604  14.660   2.496  1.00  0.00    +0.029 A 
ATOM     39  C   UNL     1      -3.712  15.380   2.948  1.00  0.00    +0.052 A 
BRANCH  39  40
ATOM     40  N   UNL     1      -4.001  15.516   4.328  1.00  0.00    -0.250 N 
ATOM     41  C   UNL     1      -4.175  16.685   5.052  1.00  0.00    +0.350 C 
ATOM     42  C   UNL     1      -4.193  14.526   5.229  1.00  0.00    +0.231 C 
ATOM     43  O   UNL     1      -4.147  17.848   4.678  1.00  0.00    -0.246 OA
ATOM     44  N   UNL     1      -4.426  16.267   6.371  1.00  0.00    -0.210 N 
ATOM     45  N   UNL     1      -4.458  14.898   6.442  1.00  0.00    -0.158 NA
BRANCH  44  46
ATOM     46  C   UNL     1      -4.793  17.126   7.486  1.00  0.00    +0.110 C 
ATOM     47  C   UNL     1      -3.553  17.785   8.092  1.00  0.00    +0.033 C 
BRANCH  46  48
ATOM     48  C   UNL     1      -5.578  16.359   8.565  1.00  0.00    +0.024 C 
ATOM     49  C   UNL     1      -4.932  16.435   9.942  1.00  0.00    +0.006 C 
ENDBRANCH  46  48
ENDBRANCH  44  46
ENDBRANCH  39  40
ENDBRANCH  33  34
ENDBRANCH   1  28
TORSDOF 11
ENDMDL
MODEL 6
REMARK VINA RESULT:    -6.029      4.285      6.267
REMARK INTER + INTRA:         -11.315
REMARK INTER:                  -9.452
REMARK INTRA:                  -1.863
REMARK UNBOUND:                -1.409
REMARK SMILES CC[C@@H](C)n1ncn(-c2ccc(N3CCN(c4ccc(OC[C@H]5CO[C@](Cn6cncn6)(c6ccc(Cl)cc6Cl)O5)cc4)CC3)cc2)c1=O
REMARK SMILES IDX 17 1 18 2 43 3 20 4 19 5 42 6 21 7 22 8 23 9 26 10 41 11
REMARK SMILES IDX 25 12 24 13 33 14 39 15 38 16 34 17 36 18 35 19 40 20 37 21
REMARK SMILES IDX 27 22 28 23 32 24 29 25 31 26 30 27 16 28 15 29 44 30 14 31
REMARK SMILES IDX 45 32 13 33 12 34 11 35 46 36 10 37 47 38 9 39 8 40 48 41
REMARK SMILES IDX 7 42 49 43 5 44 6 45 3 46 4 47 2 48 1 49
REMARK H PARENT
ROOT
ATOM      1  C   UNL     1       1.234  15.604  -5.327  1.00  0.00    +0.037 A 
ATOM      2  C   UNL     1       0.622  15.844  -6.568  1.00  0.00    +0.030 A 
ATOM      3  C   UNL     1       2.629  15.471  -5.342  1.00  0.00    +0.030 A 
ATOM      4  C   UNL     1       2.740  15.823  -7.742  1.00  0.00    +0.119 A 
ATOM      5  C   UNL     1       1.357  15.954  -7.760  1.00  0.00    +0.048 A 
ATOM      6  C   UNL     1       3.371  15.582  -6.526  1.00  0.00    +0.048 A 
ENDROOT
BRANCH   4   7
ATOM      7  O   UNL     1       3.576  15.907  -8.818  1.00  0.00    -0.491 OA
BRANCH   7   8
ATOM      8  C   UNL     1       4.915  15.434  -8.643  1.00  0.00    +0.264 C 
BRANCH   8   9
ATOM      9  C   UNL     1       5.870  16.512  -9.144  1.00  0.00    +0.185 C 
ATOM     10  C   UNL     1       6.556  18.660  -8.770  1.00  0.00    +0.217 C 
ATOM     11  O   UNL     1       6.204  17.437  -8.099  1.00  0.00    -0.335 OA
ATOM     12  O   UNL     1       6.051  18.592 -10.124  1.00  0.00    -0.341 OA
ATOM     13  C   UNL     1       5.256  17.407 -10.186  1.00  0.00    +0.200 C 
BRANCH  10  14
ATOM     14  C   UNL     1       8.087  18.794  -8.816  1.00  0.00    +0.032 A 
ATOM     15  C   UNL     1       8.901  18.784  -7.663  1.00  0.00    +0.051 A 
ATOM     16  C   UNL     1      10.293  18.909  -7.759  1.00  0.00    +0.041 A 
ATOM     17  C   UNL     1       8.735  18.956 -10.062  1.00  0.00    +0.012 A 
ATOM     18  C   UNL     1      10.897  19.053  -9.003  1.00  0.00    +0.042 A 
ATOM     19  C   UNL     1      10.123  19.081 -10.156  1.00  0.00    +0.021 A 
ATOM     20 Cl   UNL     1       8.265  18.649  -6.059  1.00  0.00    -0.084 Cl
ATOM     21 Cl   UNL     1      12.605  19.208  -9.115  1.00  0.00    -0.084 Cl
ENDBRANCH  10  14
BRANCH  10  22
ATOM     22  C   UNL     1       5.946  19.880  -8.051  1.00  0.00    +0.217 C 
BRANCH  22  23
ATOM     23  N   UNL     1       4.675  19.586  -7.424  1.00  0.00    -0.247 N 
ATOM     24  N   UNL     1       3.518  19.670  -8.110  1.00  0.00    -0.160 NA
ATOM     25  C   UNL     1       4.444  19.257  -6.122  1.00  0.00    +0.219 A 
ATOM     26  C   UNL     1       2.628  19.352  -7.166  1.00  0.00    +0.246 A 
ATOM     27  N   UNL     1       3.156  19.079  -5.937  1.00  0.00    -0.224 NA
ENDBRANCH  22  23
ENDBRANCH  10  22
ENDBRANCH   8   9
ENDBRANCH   7   8
ENDBRANCH   4   7
BRANCH   1  28
ATOM     28  N   UNL     1       0.494  15.494  -4.162  1.00  0.00    -0.368 N 
ATOM     29  C   UNL     1      -0.088  14.213  -3.728  1.00  0.00    +0.138 C 
ATOM     30  C   UNL     1       0.400  16.613  -3.207  1.00  0.00    +0.138 C 
ATOM     31  C   UNL     1      -1.285  14.417  -2.769  1.00  0.00    +0.138 C 
ATOM     32  C   UNL     1       0.229  16.130  -1.746  1.00  0.00    +0.138 C 
ATOM     33  N   UNL     1      -0.927  15.230  -1.592  1.00  0.00    -0.368 N 
BRANCH  33  34
ATOM     34  C   UNL     1      -1.571  15.068  -0.379  1.00  0.00    +0.037 A 
ATOM     35  C   UNL     1      -1.738  16.130   0.518  1.00  0.00    +0.028 A 
ATOM     36  C   UNL     1      -2.087  13.835   0.035  1.00  0.00    +0.028 A 
ATOM     37  C   UNL     1      -2.386  15.972   1.757  1.00  0.00    +0.029 A 
ATOM     38  C   UNL     1      -2.738  13.669   1.270  1.00  0.00    +0.029 A 
ATOM     39  C   UNL     1      -2.900  14.735   2.158  1.00  0.00    +0.052 A 
BRANCH  39  40
ATOM     40  N   UNL     1      -3.554  14.575   3.404  1.00  0.00    -0.250 N 
ATOM     41  C   UNL     1      -4.785  13.989   3.653  1.00  0.00    +0.350 C 
ATOM     42  C   UNL     1      -3.099  14.942   4.623  1.00  0.00    +0.231 C 
ATOM     43  O   UNL     1      -5.570  13.461   2.880  1.00  0.00    -0.246 OA
ATOM     44  N   UNL     1      -4.971  14.100   5.042  1.00  0.00    -0.210 N 
ATOM     45  N   UNL     1      -3.875  14.681   5.627  1.00  0.00    -0.158 NA
BRANCH  44  46
ATOM     46  C   UNL     1      -6.065  13.523   5.808  1.00  0.00    +0.110 C 
ATOM     47  C   UNL     1      -6.085  14.086   7.230  1.00  0.00    +0.033 C 
BRANCH  46  48
ATOM     48  C   UNL     1      -5.995  11.986   5.837  1.00  0.00    +0.024 C 
ATOM     49  C   UNL     1      -7.327  11.334   6.182  1.00  0.00    +0.006 C 
ENDBRANCH  46  48
ENDBRANCH  44  46
ENDBRANCH  39  40
ENDBRANCH  33  34
ENDBRANCH   1  28
TORSDOF 11
ENDMDL
MODEL 7
REMARK VINA RESULT:    -5.991      5.806     15.258
REMARK INTER + INTRA:         -11.252
REMARK INTER:                  -9.411
REMARK INTRA:                  -1.842
REMARK UNBOUND:                -1.409
REMARK SMILES CC[C@@H](C)n1ncn(-c2ccc(N3CCN(c4ccc(OC[C@H]5CO[C@](Cn6cncn6)(c6ccc(Cl)cc6Cl)O5)cc4)CC3)cc2)c1=O
REMARK SMILES IDX 17 1 18 2 43 3 20 4 19 5 42 6 21 7 22 8 23 9 26 10 41 11
REMARK SMILES IDX 25 12 24 13 33 14 39 15 38 16 34 17 36 18 35 19 40 20 37 21
REMARK SMILES IDX 27 22 28 23 32 24 29 25 31 26 30 27 16 28 15 29 44 30 14 31
REMARK SMILES IDX 45 32 13 33 12 34 11 35 46 36 10 37 47 38 9 39 8 40 48 41
REMARK SMILES IDX 7 42 49 43 5 44 6 45 3 46 4 47 2 48 1 49
REMARK H PARENT
ROOT
ATOM      1  C   UNL     1       1.083  15.881  -6.295  1.00  0.00    +0.037 A 
ATOM      2  C   UNL     1      -0.023  15.669  -7.136  1.00  0.00    +0.030 A 
ATOM      3  C   UNL     1       0.966  15.389  -4.987  1.00  0.00    +0.030 A 
ATOM      4  C   UNL     1      -1.261  14.517  -5.402  1.00  0.00    +0.119 A 
ATOM      5  C   UNL     1      -1.178  14.998  -6.704  1.00  0.00    +0.048 A 
ATOM      6  C   UNL     1      -0.182  14.716  -4.548  1.00  0.00    +0.048 A 
ENDROOT
BRANCH   4   7
ATOM      7  O   UNL     1      -2.317  13.850  -4.852  1.00  0.00    -0.491 OA
BRANCH   7   8
ATOM      8  C   UNL     1      -2.080  12.513  -4.398  1.00  0.00    +0.264 C 
BRANCH   8   9
ATOM      9  C   UNL     1      -2.640  12.385  -2.985  1.00  0.00    +0.185 C 
ATOM     10  C   UNL     1      -2.092  12.605  -0.776  1.00  0.00    +0.217 C 
ATOM     11  O   UNL     1      -1.929  13.225  -2.065  1.00  0.00    -0.335 OA
ATOM     12  O   UNL     1      -2.524  11.241  -0.986  1.00  0.00    -0.341 OA
ATOM     13  C   UNL     1      -2.442  11.015  -2.394  1.00  0.00    +0.200 C 
BRANCH  10  14
ATOM     14  C   UNL     1      -3.176  13.355   0.015  1.00  0.00    +0.032 A 
ATOM     15  C   UNL     1      -3.236  14.762   0.107  1.00  0.00    +0.051 A 
ATOM     16  C   UNL     1      -4.246  15.396   0.842  1.00  0.00    +0.041 A 
ATOM     17  C   UNL     1      -4.162  12.619   0.713  1.00  0.00    +0.012 A 
ATOM     18  C   UNL     1      -5.208  14.641   1.504  1.00  0.00    +0.042 A 
ATOM     19  C   UNL     1      -5.168  13.254   1.446  1.00  0.00    +0.021 A 
ATOM     20 Cl   UNL     1      -2.076  15.807  -0.640  1.00  0.00    -0.084 Cl
ATOM     21 Cl   UNL     1      -6.443  15.425   2.405  1.00  0.00    -0.084 Cl
ENDBRANCH  10  14
BRANCH  10  22
ATOM     22  C   UNL     1      -0.768  12.614   0.013  1.00  0.00    +0.217 C 
BRANCH  22  23
ATOM     23  N   UNL     1       0.366  13.011  -0.795  1.00  0.00    -0.247 N 
ATOM     24  N   UNL     1       0.936  12.161  -1.670  1.00  0.00    -0.160 NA
ATOM     25  C   UNL     1       1.033  14.199  -0.767  1.00  0.00    +0.219 A 
ATOM     26  C   UNL     1       1.928  12.911  -2.158  1.00  0.00    +0.246 A 
ATOM     27  N   UNL     1       2.013  14.171  -1.639  1.00  0.00    -0.224 NA
ENDBRANCH  22  23
ENDBRANCH  10  22
ENDBRANCH   8   9
ENDBRANCH   7   8
ENDBRANCH   4   7
BRANCH   1  28
ATOM     28  N   UNL     1       2.213  16.548  -6.735  1.00  0.00    -0.368 N 
ATOM     29  C   UNL     1       3.054  17.339  -5.821  1.00  0.00    +0.138 C 
ATOM     30  C   UNL     1       2.730  16.358  -8.102  1.00  0.00    +0.138 C 
ATOM     31  C   UNL     1       3.882  18.407  -6.576  1.00  0.00    +0.138 C 
ATOM     32  C   UNL     1       4.267  16.523  -8.180  1.00  0.00    +0.138 C 
ATOM     33  N   UNL     1       4.713  17.820  -7.642  1.00  0.00    -0.368 N 
BRANCH  33  34
ATOM     34  C   UNL     1       5.907  18.400  -8.031  1.00  0.00    +0.037 A 
ATOM     35  C   UNL     1       6.478  18.150  -9.284  1.00  0.00    +0.028 A 
ATOM     36  C   UNL     1       6.624  19.265  -7.196  1.00  0.00    +0.028 A 
ATOM     37  C   UNL     1       7.695  18.731  -9.684  1.00  0.00    +0.029 A 
ATOM     38  C   UNL     1       7.839  19.852  -7.590  1.00  0.00    +0.029 A 
ATOM     39  C   UNL     1       8.402  19.596  -8.842  1.00  0.00    +0.052 A 
BRANCH  39  40
ATOM     40  N   UNL     1       9.626  20.184  -9.245  1.00  0.00    -0.250 N 
ATOM     41  C   UNL     1      10.894  19.627  -9.200  1.00  0.00    +0.350 C 
ATOM     42  C   UNL     1       9.811  21.410  -9.784  1.00  0.00    +0.231 C 
ATOM     43  O   UNL     1      11.248  18.516  -8.836  1.00  0.00    -0.246 OA
ATOM     44  N   UNL     1      11.751  20.624  -9.699  1.00  0.00    -0.210 N 
ATOM     45  N   UNL     1      11.031  21.726 -10.084  1.00  0.00    -0.158 NA
BRANCH  44  46
ATOM     46  C   UNL     1      13.174  20.476  -9.963  1.00  0.00    +0.110 C 
ATOM     47  C   UNL     1      14.000  21.197  -8.897  1.00  0.00    +0.033 C 
BRANCH  46  48
ATOM     48  C   UNL     1      13.551  20.978 -11.368  1.00  0.00    +0.024 C 
ATOM     49  C   UNL     1      14.671  22.010 -11.354  1.00  0.00    +0.006 C 
ENDBRANCH  46  48
ENDBRANCH  44  46
ENDBRANCH  39  40
ENDBRANCH  33  34
ENDBRANCH   1  28
TORSDOF 11
ENDMDL
MODEL 8
REMARK VINA RESULT:    -5.928      8.479     14.881
REMARK INTER + INTRA:         -11.149
REMARK INTER:                  -9.978
REMARK INTRA:                  -1.171
REMARK UNBOUND:                -1.409
REMARK SMILES CC[C@@H](C)n1ncn(-c2ccc(N3CCN(c4ccc(OC[C@H]5CO[C@](Cn6cncn6)(c6ccc(Cl)cc6Cl)O5)cc4)CC3)cc2)c1=O
REMARK SMILES IDX 17 1 18 2 43 3 20 4 19 5 42 6 21 7 22 8 23 9 26 10 41 11
REMARK SMILES IDX 25 12 24 13 33 14 39 15 38 16 34 17 36 18 35 19 40 20 37 21
REMARK SMILES IDX 27 22 28 23 32 24 29 25 31 26 30 27 16 28 15 29 44 30 14 31
REMARK SMILES IDX 45 32 13 33 12 34 11 35 46 36 10 37 47 38 9 39 8 40 48 41
REMARK SMILES IDX 7 42 49 43 5 44 6 45 3 46 4 47 2 48 1 49
REMARK H PARENT
ROOT
ATOM      1  C   UNL     1      -2.936  14.483  -0.079  1.00  0.00    +0.037 A 
ATOM      2  C   UNL     1      -3.955  15.075  -0.844  1.00  0.00    +0.030 A 
ATOM      3  C   UNL     1      -3.281  13.308   0.603  1.00  0.00    +0.030 A 
ATOM      4  C   UNL     1      -5.555  13.357  -0.246  1.00  0.00    +0.119 A 
ATOM      5  C   UNL     1      -5.245  14.527  -0.931  1.00  0.00    +0.048 A 
ATOM      6  C   UNL     1      -4.565  12.752   0.520  1.00  0.00    +0.048 A 
ENDROOT
BRANCH   4   7
ATOM      7  O   UNL     1      -6.760  12.716  -0.242  1.00  0.00    -0.491 OA
BRANCH   7   8
ATOM      8  C   UNL     1      -7.903  13.480   0.156  1.00  0.00    +0.264 C 
BRANCH   8   9
ATOM      9  C   UNL     1      -7.461  14.478   1.221  1.00  0.00    +0.185 C 
ATOM     10  C   UNL     1      -7.495  14.884   3.470  1.00  0.00    +0.217 C 
ATOM     11  O   UNL     1      -7.302  13.842   2.497  1.00  0.00    -0.335 OA
ATOM     12  O   UNL     1      -8.151  15.994   2.816  1.00  0.00    -0.341 OA
ATOM     13  C   UNL     1      -8.497  15.531   1.510  1.00  0.00    +0.200 C 
BRANCH  10  14
ATOM     14  C   UNL     1      -6.127  15.352   3.993  1.00  0.00    +0.032 A 
ATOM     15  C   UNL     1      -5.959  16.479   4.825  1.00  0.00    +0.051 A 
ATOM     16  C   UNL     1      -4.689  16.864   5.275  1.00  0.00    +0.041 A 
ATOM     17  C   UNL     1      -4.960  14.645   3.619  1.00  0.00    +0.012 A 
ATOM     18  C   UNL     1      -3.565  16.137   4.898  1.00  0.00    +0.042 A 
ATOM     19  C   UNL     1      -3.695  15.031   4.068  1.00  0.00    +0.021 A 
ATOM     20 Cl   UNL     1      -7.275  17.484   5.330  1.00  0.00    -0.084 Cl
ATOM     21 Cl   UNL     1      -2.010  16.615   5.452  1.00  0.00    -0.084 Cl
ENDBRANCH  10  14
BRANCH  10  22
ATOM     22  C   UNL     1      -8.362  14.388   4.645  1.00  0.00    +0.217 C 
BRANCH  22  23
ATOM     23  N   UNL     1      -7.664  13.456   5.505  1.00  0.00    -0.247 N 
ATOM     24  N   UNL     1      -7.324  12.225   5.076  1.00  0.00    -0.160 NA
ATOM     25  C   UNL     1      -7.313  13.629   6.810  1.00  0.00    +0.219 A 
ATOM     26  C   UNL     1      -6.745  11.716   6.167  1.00  0.00    +0.246 A 
ATOM     27  N   UNL     1      -6.706  12.550   7.247  1.00  0.00    -0.224 NA
ENDBRANCH  22  23
ENDBRANCH  10  22
ENDBRANCH   8   9
ENDBRANCH   7   8
ENDBRANCH   4   7
BRANCH   1  28
ATOM     28  N   UNL     1      -1.671  15.039  -0.000  1.00  0.00    -0.368 N 
ATOM     29  C   UNL     1      -0.776  15.104  -1.167  1.00  0.00    +0.138 C 
ATOM     30  C   UNL     1      -1.223  15.753   1.210  1.00  0.00    +0.138 C 
ATOM     31  C   UNL     1       0.710  15.226  -0.750  1.00  0.00    +0.138 C 
ATOM     32  C   UNL     1      -0.211  16.879   0.890  1.00  0.00    +0.138 C 
ATOM     33  N   UNL     1       0.950  16.382   0.132  1.00  0.00    -0.368 N 
BRANCH  33  34
ATOM     34  C   UNL     1       2.170  17.033   0.154  1.00  0.00    +0.037 A 
ATOM     35  C   UNL     1       2.420  18.165  -0.630  1.00  0.00    +0.028 A 
ATOM     36  C   UNL     1       3.234  16.599   0.953  1.00  0.00    +0.028 A 
ATOM     37  C   UNL     1       3.660  18.830  -0.618  1.00  0.00    +0.029 A 
ATOM     38  C   UNL     1       4.476  17.259   0.973  1.00  0.00    +0.029 A 
ATOM     39  C   UNL     1       4.715  18.388   0.186  1.00  0.00    +0.052 A 
BRANCH  39  40
ATOM     40  N   UNL     1       5.964  19.057   0.201  1.00  0.00    -0.250 N 
ATOM     41  C   UNL     1       6.225  20.368   0.563  1.00  0.00    +0.350 C 
ATOM     42  C   UNL     1       7.174  18.543  -0.115  1.00  0.00    +0.231 C 
ATOM     43  O   UNL     1       5.464  21.233   0.971  1.00  0.00    -0.246 OA
ATOM     44  N   UNL     1       7.610  20.530   0.387  1.00  0.00    -0.210 N 
ATOM     45  N   UNL     1       8.183  19.351  -0.016  1.00  0.00    -0.158 NA
BRANCH  44  46
ATOM     46  C   UNL     1       8.388  21.704   0.750  1.00  0.00    +0.110 C 
ATOM     47  C   UNL     1       8.369  21.919   2.264  1.00  0.00    +0.033 C 
BRANCH  46  48
ATOM     48  C   UNL     1       7.895  22.966   0.020  1.00  0.00    +0.024 C 
ATOM     49  C   UNL     1       8.241  22.972  -1.463  1.00  0.00    +0.006 C 
ENDBRANCH  46  48
ENDBRANCH  44  46
ENDBRANCH  39  40
ENDBRANCH  33  34
ENDBRANCH   1  28
TORSDOF 11
ENDMDL
MODEL 9
REMARK VINA RESULT:    -5.913      5.765     15.555
REMARK INTER + INTRA:         -11.124
REMARK INTER:                  -9.446
REMARK INTRA:                  -1.678
REMARK UNBOUND:                -1.409
REMARK SMILES CC[C@@H](C)n1ncn(-c2ccc(N3CCN(c4ccc(OC[C@H]5CO[C@](Cn6cncn6)(c6ccc(Cl)cc6Cl)O5)cc4)CC3)cc2)c1=O
REMARK SMILES IDX 17 1 18 2 43 3 20 4 19 5 42 6 21 7 22 8 23 9 26 10 41 11
REMARK SMILES IDX 25 12 24 13 33 14 39 15 38 16 34 17 36 18 35 19 40 20 37 21
REMARK SMILES IDX 27 22 28 23 32 24 29 25 31 26 30 27 16 28 15 29 44 30 14 31
REMARK SMILES IDX 45 32 13 33 12 34 11 35 46 36 10 37 47 38 9 39 8 40 48 41
REMARK SMILES IDX 7 42 49 43 5 44 6 45 3 46 4 47 2 48 1 49
REMARK H PARENT
ROOT
ATOM      1  C   UNL     1       1.721  17.066  -5.754  1.00  0.00    +0.037 A 
ATOM      2  C   UNL     1       1.415  15.702  -5.608  1.00  0.00    +0.030 A 
ATOM      3  C   UNL     1       0.820  17.967  -5.170  1.00  0.00    +0.030 A 
ATOM      4  C   UNL     1      -0.594  16.176  -4.340  1.00  0.00    +0.119 A 
ATOM      5  C   UNL     1       0.279  15.258  -4.913  1.00  0.00    +0.048 A 
ATOM      6  C   UNL     1      -0.316  17.532  -4.473  1.00  0.00    +0.048 A 
ENDROOT
BRANCH   4   7
ATOM      7  O   UNL     1      -1.729  15.886  -3.640  1.00  0.00    -0.491 OA
BRANCH   7   8
ATOM      8  C   UNL     1      -1.856  16.460  -2.335  1.00  0.00    +0.264 C 
BRANCH   8   9
ATOM      9  C   UNL     1      -0.697  15.958  -1.481  1.00  0.00    +0.185 C 
ATOM     10  C   UNL     1      -0.059  14.269  -0.078  1.00  0.00    +0.217 C 
ATOM     11  O   UNL     1      -0.754  14.534  -1.309  1.00  0.00    -0.335 OA
ATOM     12  O   UNL     1       0.041  15.510   0.658  1.00  0.00    -0.341 OA
ATOM     13  C   UNL     1      -0.747  16.458  -0.062  1.00  0.00    +0.200 C 
BRANCH  10  14
ATOM     14  C   UNL     1       1.357  13.760  -0.392  1.00  0.00    +0.032 A 
ATOM     15  C   UNL     1       1.636  12.818  -1.405  1.00  0.00    +0.051 A 
ATOM     16  C   UNL     1       2.946  12.387  -1.652  1.00  0.00    +0.041 A 
ATOM     17  C   UNL     1       2.451  14.229   0.372  1.00  0.00    +0.012 A 
ATOM     18  C   UNL     1       3.998  12.880  -0.890  1.00  0.00    +0.042 A 
ATOM     19  C   UNL     1       3.756  13.797   0.125  1.00  0.00    +0.021 A 
ATOM     20 Cl   UNL     1       0.407  12.104  -2.394  1.00  0.00    -0.084 Cl
ATOM     21 Cl   UNL     1       5.603  12.346  -1.196  1.00  0.00    -0.084 Cl
ENDBRANCH  10  14
BRANCH  10  22
ATOM     22  C   UNL     1      -0.814  13.224   0.769  1.00  0.00    +0.217 C 
BRANCH  22  23
ATOM     23  N   UNL     1      -2.159  12.981   0.294  1.00  0.00    -0.247 N 
ATOM     24  N   UNL     1      -3.167  13.830   0.574  1.00  0.00    -0.160 NA
ATOM     25  C   UNL     1      -2.612  11.907  -0.413  1.00  0.00    +0.219 A 
ATOM     26  C   UNL     1      -4.198  13.219  -0.017  1.00  0.00    +0.246 A 
ATOM     27  N   UNL     1      -3.896  12.045  -0.645  1.00  0.00    -0.224 NA
ENDBRANCH  22  23
ENDBRANCH  10  22
ENDBRANCH   8   9
ENDBRANCH   7   8
ENDBRANCH   4   7
BRANCH   1  28
ATOM     28  N   UNL     1       2.844  17.488  -6.446  1.00  0.00    -0.368 N 
ATOM     29  C   UNL     1       3.820  18.416  -5.852  1.00  0.00    +0.138 C 
ATOM     30  C   UNL     1       3.210  16.894  -7.745  1.00  0.00    +0.138 C 
ATOM     31  C   UNL     1       4.637  19.165  -6.932  1.00  0.00    +0.138 C 
ATOM     32  C   UNL     1       4.739  16.894  -7.984  1.00  0.00    +0.138 C 
ATOM     33  N   UNL     1       5.319  18.243  -7.858  1.00  0.00    -0.368 N 
BRANCH  33  34
ATOM     34  C   UNL     1       6.504  18.590  -8.481  1.00  0.00    +0.037 A 
ATOM     35  C   UNL     1       7.750  18.233  -7.953  1.00  0.00    +0.028 A 
ATOM     36  C   UNL     1       6.535  19.325  -9.671  1.00  0.00    +0.028 A 
ATOM     37  C   UNL     1       8.960  18.587  -8.578  1.00  0.00    +0.029 A 
ATOM     38  C   UNL     1       7.739  19.681 -10.303  1.00  0.00    +0.029 A 
ATOM     39  C   UNL     1       8.978  19.320  -9.769  1.00  0.00    +0.052 A 
BRANCH  39  40
ATOM     40  N   UNL     1      10.195  19.676 -10.400  1.00  0.00    -0.250 N 
ATOM     41  C   UNL     1      11.170  20.548  -9.942  1.00  0.00    +0.350 C 
ATOM     42  C   UNL     1      10.675  19.216 -11.577  1.00  0.00    +0.231 C 
ATOM     43  O   UNL     1      11.224  21.184  -8.900  1.00  0.00    -0.246 OA
ATOM     44  N   UNL     1      12.157  20.555 -10.944  1.00  0.00    -0.210 N 
ATOM     45  N   UNL     1      11.826  19.683 -11.948  1.00  0.00    -0.158 NA
BRANCH  44  46
ATOM     46  C   UNL     1      13.444  21.230 -10.873  1.00  0.00    +0.110 C 
ATOM     47  C   UNL     1      14.068  21.351 -12.264  1.00  0.00    +0.033 C 
BRANCH  46  48
ATOM     48  C   UNL     1      14.409  20.520  -9.908  1.00  0.00    +0.024 C 
ATOM     49  C   UNL     1      14.696  21.326  -8.648  1.00  0.00    +0.006 C 
ENDBRANCH  46  48
ENDBRANCH  44  46
ENDBRANCH  39  40
ENDBRANCH  33  34
ENDBRANCH   1  28
TORSDOF 11
ENDMDL
