MODEL 1
REMARK VINA RESULT:    -5.438      0.000      0.000
REMARK INTER + INTRA:         -10.093
REMARK INTER:                  -8.934
REMARK INTRA:                  -1.158
REMARK UNBOUND:                -1.158
REMARK SMILES CC[C@@H](C)n1ncn(-c2ccc(N3CCN(c4ccc(OC[C@H]5CO[C@](Cn6cncn6)(c6ccc(Cl)cc6Cl)O5)cc4)CC3)cc2)c1=O
REMARK SMILES IDX 17 1 18 2 43 3 20 4 19 5 42 6 21 7 22 8 23 9 26 10 41 11
REMARK SMILES IDX 25 12 24 13 33 14 39 15 38 16 34 17 36 18 35 19 40 20 37 21
REMARK SMILES IDX 27 22 28 23 32 24 29 25 31 26 30 27 16 28 15 29 44 30 14 31
REMARK SMILES IDX 45 32 13 33 12 34 11 35 46 36 10 37 47 38 9 39 8 40 48 41
REMARK SMILES IDX 7 42 49 43 5 44 6 45 3 46 4 47 2 48 1 49
REMARK H PARENT
ROOT
ATOM      1  C   UNL     1     -28.568  -4.242 -13.114  1.00  0.00    +0.037 A 
ATOM      2  C   UNL     1     -27.676  -4.704 -14.096  1.00  0.00    +0.030 A 
ATOM      3  C   UNL     1     -28.287  -2.981 -12.569  1.00  0.00    +0.030 A 
ATOM      4  C   UNL     1     -26.320  -2.701 -13.965  1.00  0.00    +0.119 A 
ATOM      5  C   UNL     1     -26.569  -3.951 -14.520  1.00  0.00    +0.048 A 
ATOM      6  C   UNL     1     -27.185  -2.222 -12.988  1.00  0.00    +0.048 A 
ENDROOT
BRANCH   4   7
ATOM      7  O   UNL     1     -25.287  -1.866 -14.281  1.00  0.00    -0.491 OA
BRANCH   7   8
ATOM      8  C   UNL     1     -25.525  -0.893 -15.303  1.00  0.00    +0.264 C 
BRANCH   8   9
ATOM      9  C   UNL     1     -27.028  -0.650 -15.388  1.00  0.00    +0.185 C 
ATOM     10  C   UNL     1     -28.796  -0.629 -16.837  1.00  0.00    +0.217 C 
ATOM     11  O   UNL     1     -27.610  -1.365 -16.487  1.00  0.00    -0.335 OA
ATOM     12  O   UNL     1     -28.696   0.688 -16.250  1.00  0.00    -0.341 OA
ATOM     13  C   UNL     1     -27.378   0.778 -15.708  1.00  0.00    +0.200 C 
BRANCH  10  14
ATOM     14  C   UNL     1     -30.027  -1.343 -16.256  1.00  0.00    +0.032 A 
ATOM     15  C   UNL     1     -30.277  -2.721 -16.424  1.00  0.00    +0.051 A 
ATOM     16  C   UNL     1     -31.416  -3.323 -15.873  1.00  0.00    +0.041 A 
ATOM     17  C   UNL     1     -30.985  -0.597 -15.529  1.00  0.00    +0.012 A 
ATOM     18  C   UNL     1     -32.328  -2.561 -15.152  1.00  0.00    +0.042 A 
ATOM     19  C   UNL     1     -32.120  -1.199 -14.981  1.00  0.00    +0.021 A 
ATOM     20 Cl   UNL     1     -29.236  -3.765 -17.331  1.00  0.00    -0.084 Cl
ATOM     21 Cl   UNL     1     -33.724  -3.305 -14.480  1.00  0.00    -0.084 Cl
ENDBRANCH  10  14
BRANCH  10  22
ATOM     22  C   UNL     1     -28.937  -0.505 -18.367  1.00  0.00    +0.217 C 
BRANCH  22  23
ATOM     23  N   UNL     1     -29.172   0.855 -18.802  1.00  0.00    -0.247 N 
ATOM     24  N   UNL     1     -28.168   1.630 -19.258  1.00  0.00    -0.160 NA
ATOM     25  C   UNL     1     -30.345   1.549 -18.771  1.00  0.00    +0.219 A 
ATOM     26  C   UNL     1     -28.812   2.773 -19.511  1.00  0.00    +0.246 A 
ATOM     27  N   UNL     1     -30.149   2.760 -19.239  1.00  0.00    -0.224 NA
ENDBRANCH  22  23
ENDBRANCH  10  22
ENDBRANCH   8   9
ENDBRANCH   7   8
ENDBRANCH   4   7
BRANCH   1  28
ATOM     28  N   UNL     1     -29.652  -4.998 -12.703  1.00  0.00    -0.368 N 
ATOM     29  C   UNL     1     -29.798  -6.415 -13.077  1.00  0.00    +0.138 C 
ATOM     30  C   UNL     1     -30.625  -4.474 -11.727  1.00  0.00    +0.138 C 
ATOM     31  C   UNL     1     -31.272  -6.882 -13.008  1.00  0.00    +0.138 C 
ATOM     32  C   UNL     1     -31.252  -5.593 -10.860  1.00  0.00    +0.138 C 
ATOM     33  N   UNL     1     -31.871  -6.649 -11.681  1.00  0.00    -0.368 N 
BRANCH  33  34
ATOM     34  C   UNL     1     -32.882  -7.456 -11.192  1.00  0.00    +0.037 A 
ATOM     35  C   UNL     1     -33.421  -7.274  -9.913  1.00  0.00    +0.028 A 
ATOM     36  C   UNL     1     -33.425  -8.509 -11.937  1.00  0.00    +0.028 A 
ATOM     37  C   UNL     1     -34.445  -8.095  -9.405  1.00  0.00    +0.029 A 
ATOM     38  C   UNL     1     -34.450  -9.331 -11.439  1.00  0.00    +0.029 A 
ATOM     39  C   UNL     1     -34.981  -9.142 -10.161  1.00  0.00    +0.052 A 
BRANCH  39  40
ATOM     40  N   UNL     1     -36.013  -9.968  -9.652  1.00  0.00    -0.250 N 
ATOM     41  C   UNL     1     -37.368  -9.911  -9.934  1.00  0.00    +0.350 C 
ATOM     42  C   UNL     1     -35.886 -11.009  -8.797  1.00  0.00    +0.231 C 
ATOM     43  O   UNL     1     -37.980  -9.170 -10.688  1.00  0.00    -0.246 OA
ATOM     44  N   UNL     1     -37.948 -10.935  -9.163  1.00  0.00    -0.210 N 
ATOM     45  N   UNL     1     -36.980 -11.626  -8.480  1.00  0.00    -0.158 NA
BRANCH  44  46
ATOM     46  C   UNL     1     -39.340 -11.355  -9.206  1.00  0.00    +0.110 C 
ATOM     47  C   UNL     1     -39.791 -11.586 -10.649  1.00  0.00    +0.033 C 
BRANCH  46  48
ATOM     48  C   UNL     1     -40.264 -10.343  -8.506  1.00  0.00    +0.024 C 
ATOM     49  C   UNL     1     -41.319  -9.756  -9.435  1.00  0.00    +0.006 C 
ENDBRANCH  46  48
ENDBRANCH  44  46
ENDBRANCH  39  40
ENDBRANCH  33  34
ENDBRANCH   1  28
TORSDOF 11
ENDMDL
MODEL 2
REMARK VINA RESULT:    -5.278      3.618     12.995
REMARK INTER + INTRA:          -9.831
REMARK INTER:                  -8.838
REMARK INTRA:                  -0.994
REMARK UNBOUND:                -1.158
REMARK SMILES CC[C@@H](C)n1ncn(-c2ccc(N3CCN(c4ccc(OC[C@H]5CO[C@](Cn6cncn6)(c6ccc(Cl)cc6Cl)O5)cc4)CC3)cc2)c1=O
REMARK SMILES IDX 17 1 18 2 43 3 20 4 19 5 42 6 21 7 22 8 23 9 26 10 41 11
REMARK SMILES IDX 25 12 24 13 33 14 39 15 38 16 34 17 36 18 35 19 40 20 37 21
REMARK SMILES IDX 27 22 28 23 32 24 29 25 31 26 30 27 16 28 15 29 44 30 14 31
REMARK SMILES IDX 45 32 13 33 12 34 11 35 46 36 10 37 47 38 9 39 8 40 48 41
REMARK SMILES IDX 7 42 49 43 5 44 6 45 3 46 4 47 2 48 1 49
REMARK H PARENT
ROOT
ATOM      1  C   UNL     1     -36.605  -6.546 -12.838  1.00  0.00    +0.037 A 
ATOM      2  C   UNL     1     -36.906  -7.784 -13.429  1.00  0.00    +0.030 A 
ATOM      3  C   UNL     1     -37.049  -6.366 -11.520  1.00  0.00    +0.030 A 
ATOM      4  C   UNL     1     -38.028  -8.586 -11.437  1.00  0.00    +0.119 A 
ATOM      5  C   UNL     1     -37.606  -8.792 -12.745  1.00  0.00    +0.048 A 
ATOM      6  C   UNL     1     -37.745  -7.368 -10.830  1.00  0.00    +0.048 A 
ENDROOT
BRANCH   4   7
ATOM      7  O   UNL     1     -38.713  -9.474 -10.658  1.00  0.00    -0.491 OA
BRANCH   7   8
ATOM      8  C   UNL     1     -38.033 -10.679 -10.291  1.00  0.00    +0.264 C 
BRANCH   8   9
ATOM      9  C   UNL     1     -36.698 -10.298  -9.662  1.00  0.00    +0.185 C 
ATOM     10  C   UNL     1     -34.438 -10.583  -9.861  1.00  0.00    +0.217 C 
ATOM     11  O   UNL     1     -35.635 -10.349 -10.625  1.00  0.00    -0.335 OA
ATOM     12  O   UNL     1     -34.826 -11.064  -8.553  1.00  0.00    -0.341 OA
ATOM     13  C   UNL     1     -36.236 -11.278  -8.616  1.00  0.00    +0.200 C 
BRANCH  10  14
ATOM     14  C   UNL     1     -33.672  -9.259  -9.697  1.00  0.00    +0.032 A 
ATOM     15  C   UNL     1     -32.392  -9.171  -9.110  1.00  0.00    +0.051 A 
ATOM     16  C   UNL     1     -31.737  -7.939  -8.985  1.00  0.00    +0.041 A 
ATOM     17  C   UNL     1     -34.270  -8.052 -10.130  1.00  0.00    +0.012 A 
ATOM     18  C   UNL     1     -32.349  -6.774  -9.435  1.00  0.00    +0.042 A 
ATOM     19  C   UNL     1     -33.614  -6.825 -10.003  1.00  0.00    +0.021 A 
ATOM     20 Cl   UNL     1     -31.546 -10.543  -8.480  1.00  0.00    -0.084 Cl
ATOM     21 Cl   UNL     1     -31.540  -5.266  -9.277  1.00  0.00    -0.084 Cl
ENDBRANCH  10  14
BRANCH  10  22
ATOM     22  C   UNL     1     -33.536 -11.626 -10.551  1.00  0.00    +0.217 C 
BRANCH  22  23
ATOM     23  N   UNL     1     -33.123 -11.222 -11.878  1.00  0.00    -0.247 N 
ATOM     24  N   UNL     1     -33.965 -10.582 -12.711  1.00  0.00    -0.160 NA
ATOM     25  C   UNL     1     -31.924 -11.454 -12.483  1.00  0.00    +0.219 A 
ATOM     26  C   UNL     1     -33.201 -10.433 -13.796  1.00  0.00    +0.246 A 
ATOM     27  N   UNL     1     -31.938 -10.942 -13.692  1.00  0.00    -0.224 NA
ENDBRANCH  22  23
ENDBRANCH  10  22
ENDBRANCH   8   9
ENDBRANCH   7   8
ENDBRANCH   4   7
BRANCH   1  28
ATOM     28  N   UNL     1     -35.918  -5.560 -13.526  1.00  0.00    -0.368 N 
ATOM     29  C   UNL     1     -35.071  -4.575 -12.835  1.00  0.00    +0.138 C 
ATOM     30  C   UNL     1     -35.860  -5.556 -15.000  1.00  0.00    +0.138 C 
ATOM     31  C   UNL     1     -34.873  -3.291 -13.676  1.00  0.00    +0.138 C 
ATOM     32  C   UNL     1     -34.547  -4.936 -15.536  1.00  0.00    +0.138 C 
ATOM     33  N   UNL     1     -34.321  -3.577 -15.013  1.00  0.00    -0.368 N 
BRANCH  33  34
ATOM     34  C   UNL     1     -33.537  -2.657 -15.683  1.00  0.00    +0.037 A 
ATOM     35  C   UNL     1     -32.843  -1.645 -15.009  1.00  0.00    +0.028 A 
ATOM     36  C   UNL     1     -33.392  -2.671 -17.075  1.00  0.00    +0.028 A 
ATOM     37  C   UNL     1     -32.047  -0.701 -15.684  1.00  0.00    +0.029 A 
ATOM     38  C   UNL     1     -32.597  -1.733 -17.757  1.00  0.00    +0.029 A 
ATOM     39  C   UNL     1     -31.908  -0.727 -17.075  1.00  0.00    +0.052 A 
BRANCH  39  40
ATOM     40  N   UNL     1     -31.107   0.222 -17.756  1.00  0.00    -0.250 N 
ATOM     41  C   UNL     1     -29.808   0.068 -18.216  1.00  0.00    +0.350 C 
ATOM     42  C   UNL     1     -31.452   1.476 -18.124  1.00  0.00    +0.231 C 
ATOM     43  O   UNL     1     -29.072  -0.905 -18.168  1.00  0.00    -0.246 OA
ATOM     44  N   UNL     1     -29.478   1.303 -18.802  1.00  0.00    -0.210 N 
ATOM     45  N   UNL     1     -30.547   2.159 -18.751  1.00  0.00    -0.158 NA
BRANCH  44  46
ATOM     46  C   UNL     1     -28.257   1.603 -19.535  1.00  0.00    +0.110 C 
ATOM     47  C   UNL     1     -27.035   1.478 -18.624  1.00  0.00    +0.033 C 
BRANCH  46  48
ATOM     48  C   UNL     1     -28.307   2.998 -20.183  1.00  0.00    +0.024 C 
ATOM     49  C   UNL     1     -26.978   3.738 -20.111  1.00  0.00    +0.006 C 
ENDBRANCH  46  48
ENDBRANCH  44  46
ENDBRANCH  39  40
ENDBRANCH  33  34
ENDBRANCH   1  28
TORSDOF 11
ENDMDL
MODEL 3
REMARK VINA RESULT:    -4.866      2.477      3.905
REMARK INTER + INTRA:          -9.154
REMARK INTER:                  -8.784
REMARK INTRA:                  -0.370
REMARK UNBOUND:                -1.158
REMARK SMILES CC[C@@H](C)n1ncn(-c2ccc(N3CCN(c4ccc(OC[C@H]5CO[C@](Cn6cncn6)(c6ccc(Cl)cc6Cl)O5)cc4)CC3)cc2)c1=O
REMARK SMILES IDX 17 1 18 2 43 3 20 4 19 5 42 6 21 7 22 8 23 9 26 10 41 11
REMARK SMILES IDX 25 12 24 13 33 14 39 15 38 16 34 17 36 18 35 19 40 20 37 21
REMARK SMILES IDX 27 22 28 23 32 24 29 25 31 26 30 27 16 28 15 29 44 30 14 31
REMARK SMILES IDX 45 32 13 33 12 34 11 35 46 36 10 37 47 38 9 39 8 40 48 41
REMARK SMILES IDX 7 42 49 43 5 44 6 45 3 46 4 47 2 48 1 49
REMARK H PARENT
ROOT
ATOM      1  C   UNL     1     -30.989  -1.711 -11.738  1.00  0.00    +0.037 A 
ATOM      2  C   UNL     1     -31.448  -0.501 -12.285  1.00  0.00    +0.030 A 
ATOM      3  C   UNL     1     -29.624  -1.765 -11.419  1.00  0.00    +0.030 A 
ATOM      4  C   UNL     1     -29.253   0.515 -12.166  1.00  0.00    +0.119 A 
ATOM      5  C   UNL     1     -30.601   0.598 -12.497  1.00  0.00    +0.048 A 
ATOM      6  C   UNL     1     -28.771  -0.672 -11.626  1.00  0.00    +0.048 A 
ENDROOT
BRANCH   4   7
ATOM      7  O   UNL     1     -28.320   1.500 -12.317  1.00  0.00    -0.491 OA
BRANCH   7   8
ATOM      8  C   UNL     1     -27.132   1.168 -13.042  1.00  0.00    +0.264 C 
BRANCH   8   9
ATOM      9  C   UNL     1     -27.535   0.764 -14.456  1.00  0.00    +0.185 C 
ATOM     10  C   UNL     1     -27.805  -1.041 -15.833  1.00  0.00    +0.217 C 
ATOM     11  O   UNL     1     -28.038  -0.579 -14.491  1.00  0.00    -0.335 OA
ATOM     12  O   UNL     1     -26.832  -0.164 -16.447  1.00  0.00    -0.341 OA
ATOM     13  C   UNL     1     -26.370   0.699 -15.407  1.00  0.00    +0.200 C 
BRANCH  10  14
ATOM     14  C   UNL     1     -29.116  -0.966 -16.632  1.00  0.00    +0.032 A 
ATOM     15  C   UNL     1     -30.254  -1.745 -16.330  1.00  0.00    +0.051 A 
ATOM     16  C   UNL     1     -31.426  -1.638 -17.090  1.00  0.00    +0.041 A 
ATOM     17  C   UNL     1     -29.205  -0.097 -17.744  1.00  0.00    +0.012 A 
ATOM     18  C   UNL     1     -31.481  -0.763 -18.169  1.00  0.00    +0.042 A 
ATOM     19  C   UNL     1     -30.374   0.006 -18.502  1.00  0.00    +0.021 A 
ATOM     20 Cl   UNL     1     -30.294  -2.896 -15.038  1.00  0.00    -0.084 Cl
ATOM     21 Cl   UNL     1     -32.922  -0.638 -19.099  1.00  0.00    -0.084 Cl
ENDBRANCH  10  14
BRANCH  10  22
ATOM     22  C   UNL     1     -27.272  -2.488 -15.836  1.00  0.00    +0.217 C 
BRANCH  22  23
ATOM     23  N   UNL     1     -26.911  -2.956 -14.515  1.00  0.00    -0.247 N 
ATOM     24  N   UNL     1     -25.755  -2.584 -13.930  1.00  0.00    -0.160 NA
ATOM     25  C   UNL     1     -27.595  -3.830 -13.724  1.00  0.00    +0.219 A 
ATOM     26  C   UNL     1     -25.818  -3.251 -12.774  1.00  0.00    +0.246 A 
ATOM     27  N   UNL     1     -26.936  -4.015 -12.604  1.00  0.00    -0.224 NA
ENDBRANCH  22  23
ENDBRANCH  10  22
ENDBRANCH   8   9
ENDBRANCH   7   8
ENDBRANCH   4   7
BRANCH   1  28
ATOM     28  N   UNL     1     -31.837  -2.787 -11.539  1.00  0.00    -0.368 N 
ATOM     29  C   UNL     1     -33.291  -2.678 -11.739  1.00  0.00    +0.138 C 
ATOM     30  C   UNL     1     -31.309  -4.140 -11.287  1.00  0.00    +0.138 C 
ATOM     31  C   UNL     1     -34.066  -3.762 -10.952  1.00  0.00    +0.138 C 
ATOM     32  C   UNL     1     -32.248  -5.248 -11.822  1.00  0.00    +0.138 C 
ATOM     33  N   UNL     1     -33.614  -5.125 -11.285  1.00  0.00    -0.368 N 
BRANCH  33  34
ATOM     34  C   UNL     1     -34.468  -6.210 -11.204  1.00  0.00    +0.037 A 
ATOM     35  C   UNL     1     -35.765  -6.171 -11.729  1.00  0.00    +0.028 A 
ATOM     36  C   UNL     1     -34.096  -7.410 -10.588  1.00  0.00    +0.028 A 
ATOM     37  C   UNL     1     -36.643  -7.268 -11.646  1.00  0.00    +0.029 A 
ATOM     38  C   UNL     1     -34.966  -8.511 -10.503  1.00  0.00    +0.029 A 
ATOM     39  C   UNL     1     -36.259  -8.463 -11.030  1.00  0.00    +0.052 A 
BRANCH  39  40
ATOM     40  N   UNL     1     -37.140  -9.568 -10.947  1.00  0.00    -0.250 N 
ATOM     41  C   UNL     1     -38.167  -9.774 -10.039  1.00  0.00    +0.350 C 
ATOM     42  C   UNL     1     -37.180 -10.650 -11.758  1.00  0.00    +0.231 C 
ATOM     43  O   UNL     1     -38.564  -9.059  -9.132  1.00  0.00    -0.246 OA
ATOM     44  N   UNL     1     -38.717 -11.022 -10.383  1.00  0.00    -0.210 N 
ATOM     45  N   UNL     1     -38.089 -11.534 -11.490  1.00  0.00    -0.158 NA
BRANCH  44  46
ATOM     46  C   UNL     1     -39.903 -11.625  -9.796  1.00  0.00    +0.110 C 
ATOM     47  C   UNL     1     -41.065 -11.615 -10.792  1.00  0.00    +0.033 C 
BRANCH  46  48
ATOM     48  C   UNL     1     -40.310 -10.931  -8.485  1.00  0.00    +0.024 C 
ATOM     49  C   UNL     1     -41.538 -10.043  -8.635  1.00  0.00    +0.006 C 
ENDBRANCH  46  48
ENDBRANCH  44  46
ENDBRANCH  39  40
ENDBRANCH  33  34
ENDBRANCH   1  28
TORSDOF 11
ENDMDL
MODEL 4
REMARK VINA RESULT:    -4.611     10.477     16.841
REMARK INTER + INTRA:          -8.735
REMARK INTER:                  -7.239
REMARK INTRA:                  -1.496
REMARK UNBOUND:                -1.158
REMARK SMILES CC[C@@H](C)n1ncn(-c2ccc(N3CCN(c4ccc(OC[C@H]5CO[C@](Cn6cncn6)(c6ccc(Cl)cc6Cl)O5)cc4)CC3)cc2)c1=O
REMARK SMILES IDX 17 1 18 2 43 3 20 4 19 5 42 6 21 7 22 8 23 9 26 10 41 11
REMARK SMILES IDX 25 12 24 13 33 14 39 15 38 16 34 17 36 18 35 19 40 20 37 21
REMARK SMILES IDX 27 22 28 23 32 24 29 25 31 26 30 27 16 28 15 29 44 30 14 31
REMARK SMILES IDX 45 32 13 33 12 34 11 35 46 36 10 37 47 38 9 39 8 40 48 41
REMARK SMILES IDX 7 42 49 43 5 44 6 45 3 46 4 47 2 48 1 49
REMARK H PARENT
ROOT
ATOM      1  C   UNL     1     -28.932   8.847 -22.551  1.00  0.00    +0.037 A 
ATOM      2  C   UNL     1     -29.862   9.852 -22.238  1.00  0.00    +0.030 A 
ATOM      3  C   UNL     1     -27.933   9.195 -23.471  1.00  0.00    +0.030 A 
ATOM      4  C   UNL     1     -28.794  11.452 -23.710  1.00  0.00    +0.119 A 
ATOM      5  C   UNL     1     -29.799  11.136 -22.804  1.00  0.00    +0.048 A 
ATOM      6  C   UNL     1     -27.861  10.475 -24.039  1.00  0.00    +0.048 A 
ENDROOT
BRANCH   4   7
ATOM      7  O   UNL     1     -28.613  12.654 -24.332  1.00  0.00    -0.491 OA
BRANCH   7   8
ATOM      8  C   UNL     1     -28.931  12.720 -25.726  1.00  0.00    +0.264 C 
BRANCH   8   9
ATOM      9  C   UNL     1     -27.783  13.422 -26.443  1.00  0.00    +0.185 C 
ATOM     10  C   UNL     1     -25.670  14.241 -26.141  1.00  0.00    +0.217 C 
ATOM     11  O   UNL     1     -26.523  13.128 -25.821  1.00  0.00    -0.335 OA
ATOM     12  O   UNL     1     -26.506  15.338 -26.576  1.00  0.00    -0.341 OA
ATOM     13  C   UNL     1     -27.852  14.922 -26.342  1.00  0.00    +0.200 C 
BRANCH  10  14
ATOM     14  C   UNL     1     -24.728  13.847 -27.290  1.00  0.00    +0.032 A 
ATOM     15  C   UNL     1     -23.857  14.757 -27.927  1.00  0.00    +0.051 A 
ATOM     16  C   UNL     1     -23.018  14.346 -28.970  1.00  0.00    +0.041 A 
ATOM     17  C   UNL     1     -24.731  12.515 -27.766  1.00  0.00    +0.012 A 
ATOM     18  C   UNL     1     -23.037  13.025 -29.403  1.00  0.00    +0.042 A 
ATOM     19  C   UNL     1     -23.893  12.108 -28.808  1.00  0.00    +0.021 A 
ATOM     20 Cl   UNL     1     -23.770  16.434 -27.503  1.00  0.00    -0.084 Cl
ATOM     21 Cl   UNL     1     -22.006  12.528 -30.685  1.00  0.00    -0.084 Cl
ENDBRANCH  10  14
BRANCH  10  22
ATOM     22  C   UNL     1     -24.844  14.674 -24.913  1.00  0.00    +0.217 C 
BRANCH  22  23
ATOM     23  N   UNL     1     -25.495  14.364 -23.659  1.00  0.00    -0.247 N 
ATOM     24  N   UNL     1     -26.388  15.207 -23.103  1.00  0.00    -0.160 NA
ATOM     25  C   UNL     1     -25.291  13.279 -22.860  1.00  0.00    +0.219 A 
ATOM     26  C   UNL     1     -26.702  14.555 -21.980  1.00  0.00    +0.246 A 
ATOM     27  N   UNL     1     -26.062  13.363 -21.801  1.00  0.00    -0.224 NA
ENDBRANCH  22  23
ENDBRANCH  10  22
ENDBRANCH   8   9
ENDBRANCH   7   8
ENDBRANCH   4   7
BRANCH   1  28
ATOM     28  N   UNL     1     -29.009   7.584 -21.988  1.00  0.00    -0.368 N 
ATOM     29  C   UNL     1     -28.263   6.441 -22.538  1.00  0.00    +0.138 C 
ATOM     30  C   UNL     1     -29.704   7.360 -20.707  1.00  0.00    +0.138 C 
ATOM     31  C   UNL     1     -28.902   5.088 -22.141  1.00  0.00    +0.138 C 
ATOM     32  C   UNL     1     -29.089   6.191 -19.900  1.00  0.00    +0.138 C 
ATOM     33  N   UNL     1     -29.041   4.943 -20.680  1.00  0.00    -0.368 N 
BRANCH  33  34
ATOM     34  C   UNL     1     -29.011   3.701 -20.071  1.00  0.00    +0.037 A 
ATOM     35  C   UNL     1     -27.865   2.897 -20.087  1.00  0.00    +0.028 A 
ATOM     36  C   UNL     1     -30.122   3.165 -19.411  1.00  0.00    +0.028 A 
ATOM     37  C   UNL     1     -27.827   1.630 -19.475  1.00  0.00    +0.029 A 
ATOM     38  C   UNL     1     -30.092   1.902 -18.795  1.00  0.00    +0.029 A 
ATOM     39  C   UNL     1     -28.944   1.107 -18.815  1.00  0.00    +0.052 A 
BRANCH  39  40
ATOM     40  N   UNL     1     -28.907  -0.168 -18.198  1.00  0.00    -0.250 N 
ATOM     41  C   UNL     1     -29.901  -1.133 -18.175  1.00  0.00    +0.350 C 
ATOM     42  C   UNL     1     -27.877  -0.722 -17.518  1.00  0.00    +0.231 C 
ATOM     43  O   UNL     1     -31.009  -1.127 -18.689  1.00  0.00    -0.246 OA
ATOM     44  N   UNL     1     -29.364  -2.194 -17.424  1.00  0.00    -0.210 N 
ATOM     45  N   UNL     1     -28.076  -1.913 -17.049  1.00  0.00    -0.158 NA
BRANCH  44  46
ATOM     46  C   UNL     1     -29.983  -3.495 -17.217  1.00  0.00    +0.110 C 
ATOM     47  C   UNL     1     -30.925  -3.460 -16.013  1.00  0.00    +0.033 C 
BRANCH  46  48
ATOM     48  C   UNL     1     -28.934  -4.608 -17.050  1.00  0.00    +0.024 C 
ATOM     49  C   UNL     1     -29.297  -5.887 -17.791  1.00  0.00    +0.006 C 
ENDBRANCH  46  48
ENDBRANCH  44  46
ENDBRANCH  39  40
ENDBRANCH  33  34
ENDBRANCH   1  28
TORSDOF 11
ENDMDL
MODEL 5
REMARK VINA RESULT:    -4.442      8.043     13.246
REMARK INTER + INTRA:          -8.456
REMARK INTER:                  -7.051
REMARK INTRA:                  -1.406
REMARK UNBOUND:                -1.158
REMARK SMILES CC[C@@H](C)n1ncn(-c2ccc(N3CCN(c4ccc(OC[C@H]5CO[C@](Cn6cncn6)(c6ccc(Cl)cc6Cl)O5)cc4)CC3)cc2)c1=O
REMARK SMILES IDX 17 1 18 2 43 3 20 4 19 5 42 6 21 7 22 8 23 9 26 10 41 11
REMARK SMILES IDX 25 12 24 13 33 14 39 15 38 16 34 17 36 18 35 19 40 20 37 21
REMARK SMILES IDX 27 22 28 23 32 24 29 25 31 26 30 27 16 28 15 29 44 30 14 31
REMARK SMILES IDX 45 32 13 33 12 34 11 35 46 36 10 37 47 38 9 39 8 40 48 41
REMARK SMILES IDX 7 42 49 43 5 44 6 45 3 46 4 47 2 48 1 49
REMARK H PARENT
ROOT
ATOM      1  C   UNL     1     -28.965   4.922 -20.826  1.00  0.00    +0.037 A 
ATOM      2  C   UNL     1     -29.553   6.087 -20.303  1.00  0.00    +0.030 A 
ATOM      3  C   UNL     1     -28.485   5.010 -22.140  1.00  0.00    +0.030 A 
ATOM      4  C   UNL     1     -29.162   7.332 -22.343  1.00  0.00    +0.119 A 
ATOM      5  C   UNL     1     -29.652   7.276 -21.044  1.00  0.00    +0.048 A 
ATOM      6  C   UNL     1     -28.578   6.193 -22.886  1.00  0.00    +0.048 A 
ENDROOT
BRANCH   4   7
ATOM      7  O   UNL     1     -29.191   8.416 -23.173  1.00  0.00    -0.491 OA
BRANCH   7   8
ATOM      8  C   UNL     1     -28.194   9.422 -22.968  1.00  0.00    +0.264 C 
BRANCH   8   9
ATOM      9  C   UNL     1     -28.826  10.564 -22.180  1.00  0.00    +0.185 C 
ATOM     10  C   UNL     1     -29.772  12.633 -22.403  1.00  0.00    +0.217 C 
ATOM     11  O   UNL     1     -29.729  11.323 -22.997  1.00  0.00    -0.335 OA
ATOM     12  O   UNL     1     -28.630  12.767 -21.526  1.00  0.00    -0.341 OA
ATOM     13  C   UNL     1     -27.830  11.604 -21.744  1.00  0.00    +0.200 C 
BRANCH  10  14
ATOM     14  C   UNL     1     -31.058  12.773 -21.572  1.00  0.00    +0.032 A 
ATOM     15  C   UNL     1     -32.353  12.629 -22.114  1.00  0.00    +0.051 A 
ATOM     16  C   UNL     1     -33.493  12.766 -21.312  1.00  0.00    +0.041 A 
ATOM     17  C   UNL     1     -30.965  13.084 -20.195  1.00  0.00    +0.012 A 
ATOM     18  C   UNL     1     -33.363  13.058 -19.959  1.00  0.00    +0.042 A 
ATOM     19  C   UNL     1     -32.104  13.221 -19.397  1.00  0.00    +0.021 A 
ATOM     20 Cl   UNL     1     -32.643  12.304 -23.790  1.00  0.00    -0.084 Cl
ATOM     21 Cl   UNL     1     -34.766  13.227 -18.980  1.00  0.00    -0.084 Cl
ENDBRANCH  10  14
BRANCH  10  22
ATOM     22  C   UNL     1     -29.727  13.731 -23.484  1.00  0.00    +0.217 C 
BRANCH  22  23
ATOM     23  N   UNL     1     -29.147  13.272 -24.729  1.00  0.00    -0.247 N 
ATOM     24  N   UNL     1     -27.813  13.236 -24.910  1.00  0.00    -0.160 NA
ATOM     25  C   UNL     1     -29.801  12.884 -25.859  1.00  0.00    +0.219 A 
ATOM     26  C   UNL     1     -27.730  12.790 -26.167  1.00  0.00    +0.246 A 
ATOM     27  N   UNL     1     -28.926  12.549 -26.779  1.00  0.00    -0.224 NA
ENDBRANCH  22  23
ENDBRANCH  10  22
ENDBRANCH   8   9
ENDBRANCH   7   8
ENDBRANCH   4   7
BRANCH   1  28
ATOM     28  N   UNL     1     -28.879   3.757 -20.084  1.00  0.00    -0.368 N 
ATOM     29  C   UNL     1     -30.075   2.984 -19.708  1.00  0.00    +0.138 C 
ATOM     30  C   UNL     1     -27.576   3.136 -19.783  1.00  0.00    +0.138 C 
ATOM     31  C   UNL     1     -29.821   2.092 -18.469  1.00  0.00    +0.138 C 
ATOM     32  C   UNL     1     -27.671   1.597 -19.654  1.00  0.00    +0.138 C 
ATOM     33  N   UNL     1     -28.675   1.185 -18.657  1.00  0.00    -0.368 N 
BRANCH  33  34
ATOM     34  C   UNL     1     -28.610  -0.040 -18.018  1.00  0.00    +0.037 A 
ATOM     35  C   UNL     1     -29.644  -0.978 -18.107  1.00  0.00    +0.028 A 
ATOM     36  C   UNL     1     -27.513  -0.416 -17.234  1.00  0.00    +0.028 A 
ATOM     37  C   UNL     1     -29.589  -2.223 -17.454  1.00  0.00    +0.029 A 
ATOM     38  C   UNL     1     -27.448  -1.659 -16.581  1.00  0.00    +0.029 A 
ATOM     39  C   UNL     1     -28.486  -2.589 -16.676  1.00  0.00    +0.052 A 
BRANCH  39  40
ATOM     40  N   UNL     1     -28.427  -3.843 -16.020  1.00  0.00    -0.250 N 
ATOM     41  C   UNL     1     -28.475  -5.106 -16.588  1.00  0.00    +0.350 C 
ATOM     42  C   UNL     1     -28.287  -4.070 -14.694  1.00  0.00    +0.231 C 
ATOM     43  O   UNL     1     -28.551  -5.433 -17.763  1.00  0.00    -0.246 OA
ATOM     44  N   UNL     1     -28.394  -5.999 -15.505  1.00  0.00    -0.210 N 
ATOM     45  N   UNL     1     -28.248  -5.312 -14.327  1.00  0.00    -0.158 NA
BRANCH  44  46
ATOM     46  C   UNL     1     -28.284  -7.447 -15.596  1.00  0.00    +0.110 C 
ATOM     47  C   UNL     1     -29.650  -8.106 -15.397  1.00  0.00    +0.033 C 
BRANCH  46  48
ATOM     48  C   UNL     1     -27.263  -8.008 -14.591  1.00  0.00    +0.024 C 
ATOM     49  C   UNL     1     -27.397  -9.509 -14.377  1.00  0.00    +0.006 C 
ENDBRANCH  46  48
ENDBRANCH  44  46
ENDBRANCH  39  40
ENDBRANCH  33  34
ENDBRANCH   1  28
TORSDOF 11
ENDMDL
MODEL 6
REMARK VINA RESULT:    -4.103      7.960     13.205
REMARK INTER + INTRA:          -7.901
REMARK INTER:                  -6.474
REMARK INTRA:                  -1.426
REMARK UNBOUND:                -1.158
REMARK SMILES CC[C@@H](C)n1ncn(-c2ccc(N3CCN(c4ccc(OC[C@H]5CO[C@](Cn6cncn6)(c6ccc(Cl)cc6Cl)O5)cc4)CC3)cc2)c1=O
REMARK SMILES IDX 17 1 18 2 43 3 20 4 19 5 42 6 21 7 22 8 23 9 26 10 41 11
REMARK SMILES IDX 25 12 24 13 33 14 39 15 38 16 34 17 36 18 35 19 40 20 37 21
REMARK SMILES IDX 27 22 28 23 32 24 29 25 31 26 30 27 16 28 15 29 44 30 14 31
REMARK SMILES IDX 45 32 13 33 12 34 11 35 46 36 10 37 47 38 9 39 8 40 48 41
REMARK SMILES IDX 7 42 49 43 5 44 6 45 3 46 4 47 2 48 1 49
REMARK H PARENT
ROOT
ATOM      1  C   UNL     1     -28.817   4.753 -21.020  1.00  0.00    +0.037 A 
ATOM      2  C   UNL     1     -28.270   4.813 -22.312  1.00  0.00    +0.030 A 
ATOM      3  C   UNL     1     -29.465   5.913 -20.570  1.00  0.00    +0.030 A 
ATOM      4  C   UNL     1     -29.019   7.092 -22.644  1.00  0.00    +0.119 A 
ATOM      5  C   UNL     1     -28.366   5.960 -23.117  1.00  0.00    +0.048 A 
ATOM      6  C   UNL     1     -29.568   7.061 -21.367  1.00  0.00    +0.048 A 
ENDROOT
BRANCH   4   7
ATOM      7  O   UNL     1     -29.187   8.269 -23.315  1.00  0.00    -0.491 OA
BRANCH   7   8
ATOM      8  C   UNL     1     -28.176   9.267 -23.145  1.00  0.00    +0.264 C 
BRANCH   8   9
ATOM      9  C   UNL     1     -28.773  10.417 -22.342  1.00  0.00    +0.185 C 
ATOM     10  C   UNL     1     -29.653  12.518 -22.537  1.00  0.00    +0.217 C 
ATOM     11  O   UNL     1     -29.650  11.216 -23.149  1.00  0.00    -0.335 OA
ATOM     12  O   UNL     1     -28.509  12.603 -21.657  1.00  0.00    -0.341 OA
ATOM     13  C   UNL     1     -27.745  11.419 -21.890  1.00  0.00    +0.200 C 
BRANCH  10  14
ATOM     14  C   UNL     1     -30.935  12.687 -21.706  1.00  0.00    +0.032 A 
ATOM     15  C   UNL     1     -32.233  12.589 -22.252  1.00  0.00    +0.051 A 
ATOM     16  C   UNL     1     -33.369  12.751 -21.450  1.00  0.00    +0.041 A 
ATOM     17  C   UNL     1     -30.835  12.978 -20.325  1.00  0.00    +0.012 A 
ATOM     18  C   UNL     1     -33.233  13.022 -20.093  1.00  0.00    +0.042 A 
ATOM     19  C   UNL     1     -31.971  13.140 -19.527  1.00  0.00    +0.021 A 
ATOM     20 Cl   UNL     1     -32.530  12.294 -23.931  1.00  0.00    -0.084 Cl
ATOM     21 Cl   UNL     1     -34.632  13.221 -19.114  1.00  0.00    -0.084 Cl
ENDBRANCH  10  14
BRANCH  10  22
ATOM     22  C   UNL     1     -29.571  13.630 -23.603  1.00  0.00    +0.217 C 
BRANCH  22  23
ATOM     23  N   UNL     1     -29.001  13.170 -24.852  1.00  0.00    -0.247 N 
ATOM     24  N   UNL     1     -27.668  13.084 -25.026  1.00  0.00    -0.160 NA
ATOM     25  C   UNL     1     -29.663  12.830 -25.994  1.00  0.00    +0.219 A 
ATOM     26  C   UNL     1     -27.595  12.658 -26.290  1.00  0.00    +0.246 A 
ATOM     27  N   UNL     1     -28.795  12.477 -26.914  1.00  0.00    -0.224 NA
ENDBRANCH  22  23
ENDBRANCH  10  22
ENDBRANCH   8   9
ENDBRANCH   7   8
ENDBRANCH   4   7
BRANCH   1  28
ATOM     28  N   UNL     1     -28.710   3.617 -20.237  1.00  0.00    -0.368 N 
ATOM     29  C   UNL     1     -27.412   3.139 -19.733  1.00  0.00    +0.138 C 
ATOM     30  C   UNL     1     -29.907   2.926 -19.723  1.00  0.00    +0.138 C 
ATOM     31  C   UNL     1     -27.444   1.631 -19.389  1.00  0.00    +0.138 C 
ATOM     32  C   UNL     1     -29.649   2.231 -18.364  1.00  0.00    +0.138 C 
ATOM     33  N   UNL     1     -28.509   1.299 -18.427  1.00  0.00    -0.368 N 
BRANCH  33  34
ATOM     34  C   UNL     1     -28.387   0.235 -17.551  1.00  0.00    +0.037 A 
ATOM     35  C   UNL     1     -27.250   0.060 -16.753  1.00  0.00    +0.028 A 
ATOM     36  C   UNL     1     -29.383  -0.737 -17.412  1.00  0.00    +0.028 A 
ATOM     37  C   UNL     1     -27.114  -1.022 -15.864  1.00  0.00    +0.029 A 
ATOM     38  C   UNL     1     -29.257  -1.820 -16.524  1.00  0.00    +0.029 A 
ATOM     39  C   UNL     1     -28.119  -1.986 -15.732  1.00  0.00    +0.052 A 
BRANCH  39  40
ATOM     40  N   UNL     1     -27.984  -3.075 -14.837  1.00  0.00    -0.250 N 
ATOM     41  C   UNL     1     -28.208  -3.088 -13.469  1.00  0.00    +0.350 C 
ATOM     42  C   UNL     1     -27.630  -4.346 -15.136  1.00  0.00    +0.231 C 
ATOM     43  O   UNL     1     -28.589  -2.192 -12.731  1.00  0.00    -0.246 OA
ATOM     44  N   UNL     1     -27.920  -4.403 -13.062  1.00  0.00    -0.210 N 
ATOM     45  N   UNL     1     -27.585  -5.177 -14.143  1.00  0.00    -0.158 NA
BRANCH  44  46
ATOM     46  C   UNL     1     -28.120  -4.949 -11.729  1.00  0.00    +0.110 C 
ATOM     47  C   UNL     1     -26.986  -4.525 -10.794  1.00  0.00    +0.033 C 
BRANCH  46  48
ATOM     48  C   UNL     1     -28.255  -6.481 -11.752  1.00  0.00    +0.024 C 
ATOM     49  C   UNL     1     -28.373  -7.093 -10.362  1.00  0.00    +0.006 C 
ENDBRANCH  46  48
ENDBRANCH  44  46
ENDBRANCH  39  40
ENDBRANCH  33  34
ENDBRANCH   1  28
TORSDOF 11
ENDMDL
MODEL 7
REMARK VINA RESULT:    -4.050      8.776     14.132
REMARK INTER + INTRA:          -7.812
REMARK INTER:                  -6.526
REMARK INTRA:                  -1.286
REMARK UNBOUND:                -1.158
REMARK SMILES CC[C@@H](C)n1ncn(-c2ccc(N3CCN(c4ccc(OC[C@H]5CO[C@](Cn6cncn6)(c6ccc(Cl)cc6Cl)O5)cc4)CC3)cc2)c1=O
REMARK SMILES IDX 17 1 18 2 43 3 20 4 19 5 42 6 21 7 22 8 23 9 26 10 41 11
REMARK SMILES IDX 25 12 24 13 33 14 39 15 38 16 34 17 36 18 35 19 40 20 37 21
REMARK SMILES IDX 27 22 28 23 32 24 29 25 31 26 30 27 16 28 15 29 44 30 14 31
REMARK SMILES IDX 45 32 13 33 12 34 11 35 46 36 10 37 47 38 9 39 8 40 48 41
REMARK SMILES IDX 7 42 49 43 5 44 6 45 3 46 4 47 2 48 1 49
REMARK H PARENT
ROOT
ATOM      1  C   UNL     1     -28.979   5.074 -20.830  1.00  0.00    +0.037 A 
ATOM      2  C   UNL     1     -29.525   6.247 -20.280  1.00  0.00    +0.030 A 
ATOM      3  C   UNL     1     -28.501   5.174 -22.144  1.00  0.00    +0.030 A 
ATOM      4  C   UNL     1     -29.098   7.522 -22.295  1.00  0.00    +0.119 A 
ATOM      5  C   UNL     1     -29.586   7.454 -20.995  1.00  0.00    +0.048 A 
ATOM      6  C   UNL     1     -28.556   6.375 -22.864  1.00  0.00    +0.048 A 
ENDROOT
BRANCH   4   7
ATOM      7  O   UNL     1     -29.093   8.624 -23.101  1.00  0.00    -0.491 OA
BRANCH   7   8
ATOM      8  C   UNL     1     -27.835   9.273 -23.311  1.00  0.00    +0.264 C 
BRANCH   8   9
ATOM      9  C   UNL     1     -28.097  10.759 -23.527  1.00  0.00    +0.185 C 
ATOM     10  C   UNL     1     -27.771  12.825 -22.602  1.00  0.00    +0.217 C 
ATOM     11  O   UNL     1     -27.122  11.564 -22.848  1.00  0.00    -0.335 OA
ATOM     12  O   UNL     1     -29.197  12.633 -22.754  1.00  0.00    -0.341 OA
ATOM     13  C   UNL     1     -29.389  11.227 -22.913  1.00  0.00    +0.200 C 
BRANCH  10  14
ATOM     14  C   UNL     1     -27.294  13.853 -23.641  1.00  0.00    +0.032 A 
ATOM     15  C   UNL     1     -25.934  14.157 -23.864  1.00  0.00    +0.051 A 
ATOM     16  C   UNL     1     -25.552  15.103 -24.823  1.00  0.00    +0.041 A 
ATOM     17  C   UNL     1     -28.248  14.560 -24.409  1.00  0.00    +0.012 A 
ATOM     18  C   UNL     1     -26.517  15.769 -25.570  1.00  0.00    +0.042 A 
ATOM     19  C   UNL     1     -27.864  15.504 -25.365  1.00  0.00    +0.021 A 
ATOM     20 Cl   UNL     1     -24.645  13.423 -22.971  1.00  0.00    -0.084 Cl
ATOM     21 Cl   UNL     1     -26.042  16.930 -26.745  1.00  0.00    -0.084 Cl
ENDBRANCH  10  14
BRANCH  10  22
ATOM     22  C   UNL     1     -27.465  13.336 -21.181  1.00  0.00    +0.217 C 
BRANCH  22  23
ATOM     23  N   UNL     1     -28.621  13.915 -20.530  1.00  0.00    -0.247 N 
ATOM     24  N   UNL     1     -28.885  15.234 -20.610  1.00  0.00    -0.160 NA
ATOM     25  C   UNL     1     -29.535  13.285 -19.740  1.00  0.00    +0.219 A 
ATOM     26  C   UNL     1     -29.990  15.327 -19.865  1.00  0.00    +0.246 A 
ATOM     27  N   UNL     1     -30.428  14.153 -19.325  1.00  0.00    -0.224 NA
ENDBRANCH  22  23
ENDBRANCH  10  22
ENDBRANCH   8   9
ENDBRANCH   7   8
ENDBRANCH   4   7
BRANCH   1  28
ATOM     28  N   UNL     1     -28.931   3.891 -20.114  1.00  0.00    -0.368 N 
ATOM     29  C   UNL     1     -30.151   3.153 -19.747  1.00  0.00    +0.138 C 
ATOM     30  C   UNL     1     -27.649   3.218 -19.835  1.00  0.00    +0.138 C 
ATOM     31  C   UNL     1     -29.922   2.226 -18.529  1.00  0.00    +0.138 C 
ATOM     32  C   UNL     1     -27.798   1.680 -19.738  1.00  0.00    +0.138 C 
ATOM     33  N   UNL     1     -28.810   1.283 -18.744  1.00  0.00    -0.368 N 
BRANCH  33  34
ATOM     34  C   UNL     1     -28.785   0.043 -18.131  1.00  0.00    +0.037 A 
ATOM     35  C   UNL     1     -27.663  -0.412 -17.429  1.00  0.00    +0.028 A 
ATOM     36  C   UNL     1     -29.871  -0.837 -18.180  1.00  0.00    +0.028 A 
ATOM     37  C   UNL     1     -27.626  -1.674 -16.807  1.00  0.00    +0.029 A 
ATOM     38  C   UNL     1     -29.844  -2.098 -17.559  1.00  0.00    +0.029 A 
ATOM     39  C   UNL     1     -28.720  -2.544 -16.861  1.00  0.00    +0.052 A 
BRANCH  39  40
ATOM     40  N   UNL     1     -28.685  -3.814 -16.234  1.00  0.00    -0.250 N 
ATOM     41  C   UNL     1     -28.644  -5.061 -16.836  1.00  0.00    +0.350 C 
ATOM     42  C   UNL     1     -28.660  -4.075 -14.908  1.00  0.00    +0.231 C 
ATOM     43  O   UNL     1     -28.603  -5.357 -18.021  1.00  0.00    -0.246 OA
ATOM     44  N   UNL     1     -28.636  -5.982 -15.774  1.00  0.00    -0.210 N 
ATOM     45  N   UNL     1     -28.619  -5.326 -14.571  1.00  0.00    -0.158 NA
BRANCH  44  46
ATOM     46  C   UNL     1     -28.476  -7.424 -15.892  1.00  0.00    +0.110 C 
ATOM     47  C   UNL     1     -29.760  -8.069 -16.415  1.00  0.00    +0.033 C 
BRANCH  46  48
ATOM     48  C   UNL     1     -28.055  -8.064 -14.558  1.00  0.00    +0.024 C 
ATOM     49  C   UNL     1     -26.558  -8.334 -14.470  1.00  0.00    +0.006 C 
ENDBRANCH  46  48
ENDBRANCH  44  46
ENDBRANCH  39  40
ENDBRANCH  33  34
ENDBRANCH   1  28
TORSDOF 11
ENDMDL
MODEL 8
REMARK VINA RESULT:    -3.825      4.391     13.355
REMARK INTER + INTRA:          -7.443
REMARK INTER:                  -5.825
REMARK INTRA:                  -1.617
REMARK UNBOUND:                -1.158
REMARK SMILES CC[C@@H](C)n1ncn(-c2ccc(N3CCN(c4ccc(OC[C@H]5CO[C@](Cn6cncn6)(c6ccc(Cl)cc6Cl)O5)cc4)CC3)cc2)c1=O
REMARK SMILES IDX 17 1 18 2 43 3 20 4 19 5 42 6 21 7 22 8 23 9 26 10 41 11
REMARK SMILES IDX 25 12 24 13 33 14 39 15 38 16 34 17 36 18 35 19 40 20 37 21
REMARK SMILES IDX 27 22 28 23 32 24 29 25 31 26 30 27 16 28 15 29 44 30 14 31
REMARK SMILES IDX 45 32 13 33 12 34 11 35 46 36 10 37 47 38 9 39 8 40 48 41
REMARK SMILES IDX 7 42 49 43 5 44 6 45 3 46 4 47 2 48 1 49
REMARK H PARENT
ROOT
ATOM      1  C   UNL     1     -30.287  -2.854 -14.116  1.00  0.00    +0.037 A 
ATOM      2  C   UNL     1     -30.712  -4.163 -14.401  1.00  0.00    +0.030 A 
ATOM      3  C   UNL     1     -30.182  -2.522 -12.758  1.00  0.00    +0.030 A 
ATOM      4  C   UNL     1     -30.889  -4.735 -12.054  1.00  0.00    +0.119 A 
ATOM      5  C   UNL     1     -31.009  -5.093 -13.392  1.00  0.00    +0.048 A 
ATOM      6  C   UNL     1     -30.474  -3.444 -11.744  1.00  0.00    +0.048 A 
ENDROOT
BRANCH   4   7
ATOM      7  O   UNL     1     -31.143  -5.533 -10.976  1.00  0.00    -0.491 OA
BRANCH   7   8
ATOM      8  C   UNL     1     -31.905  -4.964  -9.907  1.00  0.00    +0.264 C 
BRANCH   8   9
ATOM      9  C   UNL     1     -33.384  -5.169 -10.216  1.00  0.00    +0.185 C 
ATOM     10  C   UNL     1     -35.249  -4.111 -11.011  1.00  0.00    +0.217 C 
ATOM     11  O   UNL     1     -33.835  -4.263 -11.233  1.00  0.00    -0.335 OA
ATOM     12  O   UNL     1     -35.545  -4.575  -9.674  1.00  0.00    -0.341 OA
ATOM     13  C   UNL     1     -34.283  -4.830  -9.057  1.00  0.00    +0.200 C 
BRANCH  10  14
ATOM     14  C   UNL     1     -36.018  -4.978 -12.021  1.00  0.00    +0.032 A 
ATOM     15  C   UNL     1     -35.672  -5.071 -13.386  1.00  0.00    +0.051 A 
ATOM     16  C   UNL     1     -36.407  -5.877 -14.265  1.00  0.00    +0.041 A 
ATOM     17  C   UNL     1     -37.147  -5.713 -11.589  1.00  0.00    +0.012 A 
ATOM     18  C   UNL     1     -37.503  -6.596 -13.803  1.00  0.00    +0.042 A 
ATOM     19  C   UNL     1     -37.879  -6.515 -12.469  1.00  0.00    +0.021 A 
ATOM     20 Cl   UNL     1     -34.354  -4.196 -14.087  1.00  0.00    -0.084 Cl
ATOM     21 Cl   UNL     1     -38.401  -7.582 -14.887  1.00  0.00    -0.084 Cl
ENDBRANCH  10  14
BRANCH  10  22
ATOM     22  C   UNL     1     -35.676  -2.637 -11.156  1.00  0.00    +0.217 C 
BRANCH  22  23
ATOM     23  N   UNL     1     -34.560  -1.750 -11.408  1.00  0.00    -0.247 N 
ATOM     24  N   UNL     1     -33.796  -1.280 -10.402  1.00  0.00    -0.160 NA
ATOM     25  C   UNL     1     -34.159  -1.234 -12.603  1.00  0.00    +0.219 A 
ATOM     26  C   UNL     1     -32.934  -0.505 -11.066  1.00  0.00    +0.246 A 
ATOM     27  N   UNL     1     -33.115  -0.461 -12.419  1.00  0.00    -0.224 NA
ENDBRANCH  22  23
ENDBRANCH  10  22
ENDBRANCH   8   9
ENDBRANCH   7   8
ENDBRANCH   4   7
BRANCH   1  28
ATOM     28  N   UNL     1     -30.003  -1.947 -15.122  1.00  0.00    -0.368 N 
ATOM     29  C   UNL     1     -30.945  -1.687 -16.223  1.00  0.00    +0.138 C 
ATOM     30  C   UNL     1     -28.821  -1.069 -15.048  1.00  0.00    +0.138 C 
ATOM     31  C   UNL     1     -30.232  -1.111 -17.470  1.00  0.00    +0.138 C 
ATOM     32  C   UNL     1     -29.048   0.286 -15.761  1.00  0.00    +0.138 C 
ATOM     33  N   UNL     1     -29.467   0.112 -17.163  1.00  0.00    -0.368 N 
BRANCH  33  34
ATOM     34  C   UNL     1     -29.259   1.093 -18.116  1.00  0.00    +0.037 A 
ATOM     35  C   UNL     1     -30.276   1.970 -18.510  1.00  0.00    +0.028 A 
ATOM     36  C   UNL     1     -28.025   1.266 -18.752  1.00  0.00    +0.028 A 
ATOM     37  C   UNL     1     -30.074   2.966 -19.482  1.00  0.00    +0.029 A 
ATOM     38  C   UNL     1     -27.814   2.261 -19.723  1.00  0.00    +0.029 A 
ATOM     39  C   UNL     1     -28.835   3.132 -20.109  1.00  0.00    +0.052 A 
BRANCH  39  40
ATOM     40  N   UNL     1     -28.630   4.136 -21.088  1.00  0.00    -0.250 N 
ATOM     41  C   UNL     1     -29.025   5.463 -21.043  1.00  0.00    +0.350 C 
ATOM     42  C   UNL     1     -27.980   4.013 -22.267  1.00  0.00    +0.231 C 
ATOM     43  O   UNL     1     -29.608   6.077 -20.162  1.00  0.00    -0.246 OA
ATOM     44  N   UNL     1     -28.591   6.017 -22.261  1.00  0.00    -0.210 N 
ATOM     45  N   UNL     1     -27.910   5.081 -22.997  1.00  0.00    -0.158 NA
BRANCH  44  46
ATOM     46  C   UNL     1     -28.664   7.420 -22.638  1.00  0.00    +0.110 C 
ATOM     47  C   UNL     1     -30.112   7.831 -22.911  1.00  0.00    +0.033 C 
BRANCH  46  48
ATOM     48  C   UNL     1     -27.775   7.733 -23.854  1.00  0.00    +0.024 C 
ATOM     49  C   UNL     1     -26.994   9.031 -23.704  1.00  0.00    +0.006 C 
ENDBRANCH  46  48
ENDBRANCH  44  46
ENDBRANCH  39  40
ENDBRANCH  33  34
ENDBRANCH   1  28
TORSDOF 11
ENDMDL
