MODEL 1
REMARK VINA RESULT:    -8.835      0.000      0.000
REMARK INTER + INTRA:         -15.629
REMARK INTER:                 -14.517
REMARK INTRA:                  -1.112
REMARK UNBOUND:                -1.112
REMARK SMILES CC[C@@H](C)n1ncn(-c2ccc(N3CCN(c4ccc(OC[C@H]5CO[C@](Cn6cncn6)(c6ccc(Cl)cc6Cl)O5)cc4)CC3)cc2)c1=O
REMARK SMILES IDX 17 1 18 2 43 3 20 4 19 5 42 6 21 7 22 8 23 9 26 10 41 11
REMARK SMILES IDX 25 12 24 13 33 14 39 15 38 16 34 17 36 18 35 19 40 20 37 21
REMARK SMILES IDX 27 22 28 23 32 24 29 25 31 26 30 27 16 28 15 29 44 30 14 31
REMARK SMILES IDX 45 32 13 33 12 34 11 35 46 36 10 37 47 38 9 39 8 40 48 41
REMARK SMILES IDX 7 42 49 43 5 44 6 45 3 46 4 47 2 48 1 49
REMARK H PARENT
ROOT
ATOM      1  C   UNL     1     -10.230 -18.716  18.424  1.00  0.00    +0.037 A 
ATOM      2  C   UNL     1      -9.079 -18.254  17.763  1.00  0.00    +0.030 A 
ATOM      3  C   UNL     1     -11.007 -19.653  17.727  1.00  0.00    +0.030 A 
ATOM      4  C   UNL     1      -9.505 -19.636  15.820  1.00  0.00    +0.119 A 
ATOM      5  C   UNL     1      -8.717 -18.703  16.483  1.00  0.00    +0.048 A 
ATOM      6  C   UNL     1     -10.652 -20.108  16.450  1.00  0.00    +0.048 A 
ENDROOT
BRANCH   4   7
ATOM      7  O   UNL     1      -9.273 -20.157  14.580  1.00  0.00    -0.491 OA
BRANCH   7   8
ATOM      8  C   UNL     1     -10.289 -19.964  13.590  1.00  0.00    +0.264 C 
BRANCH   8   9
ATOM      9  C   UNL     1     -10.828 -21.332  13.188  1.00  0.00    +0.185 C 
ATOM     10  C   UNL     1     -11.676 -22.515  11.425  1.00  0.00    +0.217 C 
ATOM     11  O   UNL     1     -10.654 -21.568  11.783  1.00  0.00    -0.335 OA
ATOM     12  O   UNL     1     -12.671 -22.521  12.476  1.00  0.00    -0.341 OA
ATOM     13  C   UNL     1     -12.318 -21.454  13.356  1.00  0.00    +0.200 C 
BRANCH  10  14
ATOM     14  C   UNL     1     -11.056 -23.917  11.318  1.00  0.00    +0.032 A 
ATOM     15  C   UNL     1      -9.765 -24.157  10.801  1.00  0.00    +0.051 A 
ATOM     16  C   UNL     1      -9.245 -25.456  10.725  1.00  0.00    +0.041 A 
ATOM     17  C   UNL     1     -11.805 -25.043  11.733  1.00  0.00    +0.012 A 
ATOM     18  C   UNL     1     -10.005 -26.538  11.156  1.00  0.00    +0.042 A 
ATOM     19  C   UNL     1     -11.285 -26.338  11.656  1.00  0.00    +0.021 A 
ATOM     20 Cl   UNL     1      -8.740 -22.898  10.199  1.00  0.00    -0.084 Cl
ATOM     21 Cl   UNL     1      -9.363 -28.129  11.059  1.00  0.00    -0.084 Cl
ENDBRANCH  10  14
BRANCH  10  22
ATOM     22  C   UNL     1     -12.339 -22.133  10.086  1.00  0.00    +0.217 C 
BRANCH  22  23
ATOM     23  N   UNL     1     -12.893 -20.796  10.094  1.00  0.00    -0.247 N 
ATOM     24  N   UNL     1     -14.174 -20.568  10.444  1.00  0.00    -0.160 NA
ATOM     25  C   UNL     1     -12.279 -19.638   9.722  1.00  0.00    +0.219 A 
ATOM     26  C   UNL     1     -14.259 -19.245  10.286  1.00  0.00    +0.246 A 
ATOM     27  N   UNL     1     -13.115 -18.635   9.858  1.00  0.00    -0.224 NA
ENDBRANCH  22  23
ENDBRANCH  10  22
ENDBRANCH   8   9
ENDBRANCH   7   8
ENDBRANCH   4   7
BRANCH   1  28
ATOM     28  N   UNL     1     -10.576 -18.261  19.684  1.00  0.00    -0.368 N 
ATOM     29  C   UNL     1     -11.943 -17.814  20.001  1.00  0.00    +0.138 C 
ATOM     30  C   UNL     1      -9.641 -18.366  20.819  1.00  0.00    +0.138 C 
ATOM     31  C   UNL     1     -11.971 -16.860  21.220  1.00  0.00    +0.138 C 
ATOM     32  C   UNL     1     -10.372 -18.536  22.173  1.00  0.00    +0.138 C 
ATOM     33  N   UNL     1     -11.349 -17.460  22.414  1.00  0.00    -0.368 N 
BRANCH  33  34
ATOM     34  C   UNL     1     -11.749 -17.110  23.691  1.00  0.00    +0.037 A 
ATOM     35  C   UNL     1     -13.038 -17.383  24.164  1.00  0.00    +0.028 A 
ATOM     36  C   UNL     1     -10.898 -16.454  24.588  1.00  0.00    +0.028 A 
ATOM     37  C   UNL     1     -13.455 -17.024  25.459  1.00  0.00    +0.029 A 
ATOM     38  C   UNL     1     -11.306 -16.095  25.884  1.00  0.00    +0.029 A 
ATOM     39  C   UNL     1     -12.595 -16.372  26.347  1.00  0.00    +0.052 A 
BRANCH  39  40
ATOM     40  N   UNL     1     -13.013 -16.012  27.651  1.00  0.00    -0.250 N 
ATOM     41  C   UNL     1     -13.504 -14.790  28.083  1.00  0.00    +0.350 C 
ATOM     42  C   UNL     1     -13.043 -16.798  28.751  1.00  0.00    +0.231 C 
ATOM     43  O   UNL     1     -13.712 -13.764  27.453  1.00  0.00    -0.246 OA
ATOM     44  N   UNL     1     -13.754 -14.958  29.456  1.00  0.00    -0.210 N 
ATOM     45  N   UNL     1     -13.479 -16.246  29.839  1.00  0.00    -0.158 NA
BRANCH  44  46
ATOM     46  C   UNL     1     -14.392 -13.991  30.335  1.00  0.00    +0.110 C 
ATOM     47  C   UNL     1     -13.570 -13.794  31.610  1.00  0.00    +0.033 C 
BRANCH  46  48
ATOM     48  C   UNL     1     -15.835 -14.395  30.681  1.00  0.00    +0.024 C 
ATOM     49  C   UNL     1     -16.739 -14.489  29.459  1.00  0.00    +0.006 C 
ENDBRANCH  46  48
ENDBRANCH  44  46
ENDBRANCH  39  40
ENDBRANCH  33  34
ENDBRANCH   1  28
TORSDOF 11
ENDMDL
MODEL 2
REMARK VINA RESULT:    -8.667      2.084      2.654
REMARK INTER + INTRA:         -15.353
REMARK INTER:                 -14.710
REMARK INTRA:                  -0.643
REMARK UNBOUND:                -1.112
REMARK SMILES CC[C@@H](C)n1ncn(-c2ccc(N3CCN(c4ccc(OC[C@H]5CO[C@](Cn6cncn6)(c6ccc(Cl)cc6Cl)O5)cc4)CC3)cc2)c1=O
REMARK SMILES IDX 17 1 18 2 43 3 20 4 19 5 42 6 21 7 22 8 23 9 26 10 41 11
REMARK SMILES IDX 25 12 24 13 33 14 39 15 38 16 34 17 36 18 35 19 40 20 37 21
REMARK SMILES IDX 27 22 28 23 32 24 29 25 31 26 30 27 16 28 15 29 44 30 14 31
REMARK SMILES IDX 45 32 13 33 12 34 11 35 46 36 10 37 47 38 9 39 8 40 48 41
REMARK SMILES IDX 7 42 49 43 5 44 6 45 3 46 4 47 2 48 1 49
REMARK H PARENT
ROOT
ATOM      1  C   UNL     1     -10.456 -18.769  18.350  1.00  0.00    +0.037 A 
ATOM      2  C   UNL     1     -11.408 -19.403  17.534  1.00  0.00    +0.030 A 
ATOM      3  C   UNL     1      -9.167 -18.645  17.812  1.00  0.00    +0.030 A 
ATOM      4  C   UNL     1      -9.812 -19.741  15.744  1.00  0.00    +0.119 A 
ATOM      5  C   UNL     1     -11.098 -19.883  16.251  1.00  0.00    +0.048 A 
ATOM      6  C   UNL     1      -8.849 -19.119  16.532  1.00  0.00    +0.048 A 
ENDROOT
BRANCH   4   7
ATOM      7  O   UNL     1      -9.373 -20.157  14.520  1.00  0.00    -0.491 OA
BRANCH   7   8
ATOM      8  C   UNL     1      -9.999 -19.577  13.371  1.00  0.00    +0.264 C 
BRANCH   8   9
ATOM      9  C   UNL     1     -10.453 -20.708  12.454  1.00  0.00    +0.185 C 
ATOM     10  C   UNL     1      -9.725 -22.154  10.840  1.00  0.00    +0.217 C 
ATOM     11  O   UNL     1      -9.356 -21.562  12.099  1.00  0.00    -0.335 OA
ATOM     12  O   UNL     1     -10.800 -21.371  10.273  1.00  0.00    -0.341 OA
ATOM     13  C   UNL     1     -10.936 -20.225  11.114  1.00  0.00    +0.200 C 
BRANCH  10  14
ATOM     14  C   UNL     1     -10.227 -23.588  11.081  1.00  0.00    +0.032 A 
ATOM     15  C   UNL     1     -11.587 -23.913  11.266  1.00  0.00    +0.051 A 
ATOM     16  C   UNL     1     -11.992 -25.236  11.482  1.00  0.00    +0.041 A 
ATOM     17  C   UNL     1      -9.294 -24.649  11.145  1.00  0.00    +0.012 A 
ATOM     18  C   UNL     1     -11.049 -26.257  11.525  1.00  0.00    +0.042 A 
ATOM     19  C   UNL     1      -9.701 -25.969  11.361  1.00  0.00    +0.021 A 
ATOM     20 Cl   UNL     1     -12.849 -22.727  11.272  1.00  0.00    -0.084 Cl
ATOM     21 Cl   UNL     1     -11.552 -27.878  11.791  1.00  0.00    -0.084 Cl
ENDBRANCH  10  14
BRANCH  10  22
ATOM     22  C   UNL     1      -8.529 -22.175   9.867  1.00  0.00    +0.217 C 
BRANCH  22  23
ATOM     23  N   UNL     1      -7.492 -21.234  10.231  1.00  0.00    -0.247 N 
ATOM     24  N   UNL     1      -6.456 -21.598  11.012  1.00  0.00    -0.160 NA
ATOM     25  C   UNL     1      -7.422 -19.909   9.919  1.00  0.00    +0.219 A 
ATOM     26  C   UNL     1      -5.783 -20.448  11.110  1.00  0.00    +0.246 A 
ATOM     27  N   UNL     1      -6.335 -19.393  10.443  1.00  0.00    -0.224 NA
ENDBRANCH  22  23
ENDBRANCH  10  22
ENDBRANCH   8   9
ENDBRANCH   7   8
ENDBRANCH   4   7
BRANCH   1  28
ATOM     28  N   UNL     1     -10.777 -18.305  19.614  1.00  0.00    -0.368 N 
ATOM     29  C   UNL     1     -12.124 -17.810  19.943  1.00  0.00    +0.138 C 
ATOM     30  C   UNL     1      -9.838 -18.448  20.742  1.00  0.00    +0.138 C 
ATOM     31  C   UNL     1     -12.108 -16.860  21.165  1.00  0.00    +0.138 C 
ATOM     32  C   UNL     1     -10.565 -18.596  22.100  1.00  0.00    +0.138 C 
ATOM     33  N   UNL     1     -11.500 -17.486  22.352  1.00  0.00    -0.368 N 
BRANCH  33  34
ATOM     34  C   UNL     1     -11.878 -17.126  23.633  1.00  0.00    +0.037 A 
ATOM     35  C   UNL     1     -13.146 -17.428  24.143  1.00  0.00    +0.028 A 
ATOM     36  C   UNL     1     -11.024 -16.431  24.497  1.00  0.00    +0.028 A 
ATOM     37  C   UNL     1     -13.541 -17.059  25.442  1.00  0.00    +0.029 A 
ATOM     38  C   UNL     1     -11.410 -16.061  25.797  1.00  0.00    +0.029 A 
ATOM     39  C   UNL     1     -12.678 -16.367  26.297  1.00  0.00    +0.052 A 
BRANCH  39  40
ATOM     40  N   UNL     1     -13.073 -15.997  27.606  1.00  0.00    -0.250 N 
ATOM     41  C   UNL     1     -13.563 -14.774  28.036  1.00  0.00    +0.350 C 
ATOM     42  C   UNL     1     -13.078 -16.774  28.713  1.00  0.00    +0.231 C 
ATOM     43  O   UNL     1     -13.790 -13.756  27.400  1.00  0.00    -0.246 OA
ATOM     44  N   UNL     1     -13.786 -14.931  29.415  1.00  0.00    -0.210 N 
ATOM     45  N   UNL     1     -13.496 -16.214  29.804  1.00  0.00    -0.158 NA
BRANCH  44  46
ATOM     46  C   UNL     1     -14.413 -13.959  30.297  1.00  0.00    +0.110 C 
ATOM     47  C   UNL     1     -13.620 -13.818  31.597  1.00  0.00    +0.033 C 
BRANCH  46  48
ATOM     48  C   UNL     1     -15.879 -14.318  30.595  1.00  0.00    +0.024 C 
ATOM     49  C   UNL     1     -16.692 -14.603  29.339  1.00  0.00    +0.006 C 
ENDBRANCH  46  48
ENDBRANCH  44  46
ENDBRANCH  39  40
ENDBRANCH  33  34
ENDBRANCH   1  28
TORSDOF 11
ENDMDL
MODEL 3
REMARK VINA RESULT:    -8.541      5.876     17.249
REMARK INTER + INTRA:         -15.146
REMARK INTER:                 -14.347
REMARK INTRA:                  -0.799
REMARK UNBOUND:                -1.112
REMARK SMILES CC[C@@H](C)n1ncn(-c2ccc(N3CCN(c4ccc(OC[C@H]5CO[C@](Cn6cncn6)(c6ccc(Cl)cc6Cl)O5)cc4)CC3)cc2)c1=O
REMARK SMILES IDX 17 1 18 2 43 3 20 4 19 5 42 6 21 7 22 8 23 9 26 10 41 11
REMARK SMILES IDX 25 12 24 13 33 14 39 15 38 16 34 17 36 18 35 19 40 20 37 21
REMARK SMILES IDX 27 22 28 23 32 24 29 25 31 26 30 27 16 28 15 29 44 30 14 31
REMARK SMILES IDX 45 32 13 33 12 34 11 35 46 36 10 37 47 38 9 39 8 40 48 41
REMARK SMILES IDX 7 42 49 43 5 44 6 45 3 46 4 47 2 48 1 49
REMARK H PARENT
ROOT
ATOM      1  C   UNL     1     -11.132 -16.741  24.346  1.00  0.00    +0.037 A 
ATOM      2  C   UNL     1     -12.389 -16.754  24.973  1.00  0.00    +0.030 A 
ATOM      3  C   UNL     1     -10.063 -16.263  25.117  1.00  0.00    +0.030 A 
ATOM      4  C   UNL     1     -11.492 -15.859  27.037  1.00  0.00    +0.119 A 
ATOM      5  C   UNL     1     -12.573 -16.322  26.297  1.00  0.00    +0.048 A 
ATOM      6  C   UNL     1     -10.237 -15.832  26.440  1.00  0.00    +0.048 A 
ENDROOT
BRANCH   4   7
ATOM      7  O   UNL     1     -11.526 -15.411  28.327  1.00  0.00    -0.491 OA
BRANCH   7   8
ATOM      8  C   UNL     1     -10.769 -14.235  28.629  1.00  0.00    +0.264 C 
BRANCH   8   9
ATOM      9  C   UNL     1     -11.734 -13.161  29.119  1.00  0.00    +0.185 C 
ATOM     10  C   UNL     1     -13.736 -12.849  30.178  1.00  0.00    +0.217 C 
ATOM     11  O   UNL     1     -12.532 -13.636  30.213  1.00  0.00    -0.335 OA
ATOM     12  O   UNL     1     -13.828 -12.227  28.876  1.00  0.00    -0.341 OA
ATOM     13  C   UNL     1     -12.774 -12.790  28.096  1.00  0.00    +0.200 C 
BRANCH  10  14
ATOM     14  C   UNL     1     -13.656 -11.751  31.251  1.00  0.00    +0.032 A 
ATOM     15  C   UNL     1     -13.440 -12.018  32.620  1.00  0.00    +0.051 A 
ATOM     16  C   UNL     1     -13.376 -10.979  33.558  1.00  0.00    +0.041 A 
ATOM     17  C   UNL     1     -13.827 -10.398  30.876  1.00  0.00    +0.012 A 
ATOM     18  C   UNL     1     -13.534  -9.659  33.150  1.00  0.00    +0.042 A 
ATOM     19  C   UNL     1     -13.763  -9.364  31.813  1.00  0.00    +0.021 A 
ATOM     20 Cl   UNL     1     -13.267 -13.619  33.254  1.00  0.00    -0.084 Cl
ATOM     21 Cl   UNL     1     -13.456  -8.390  34.307  1.00  0.00    -0.084 Cl
ENDBRANCH  10  14
BRANCH  10  22
ATOM     22  C   UNL     1     -14.978 -13.729  30.422  1.00  0.00    +0.217 C 
BRANCH  22  23
ATOM     23  N   UNL     1     -15.797 -13.886  29.239  1.00  0.00    -0.247 N 
ATOM     24  N   UNL     1     -15.867 -15.061  28.584  1.00  0.00    -0.160 NA
ATOM     25  C   UNL     1     -16.533 -12.932  28.603  1.00  0.00    +0.219 A 
ATOM     26  C   UNL     1     -16.685 -14.752  27.574  1.00  0.00    +0.246 A 
ATOM     27  N   UNL     1     -17.126 -13.460  27.558  1.00  0.00    -0.224 NA
ENDBRANCH  22  23
ENDBRANCH  10  22
ENDBRANCH   8   9
ENDBRANCH   7   8
ENDBRANCH   4   7
BRANCH   1  28
ATOM     28  N   UNL     1     -10.967 -17.166  23.039  1.00  0.00    -0.368 N 
ATOM     29  C   UNL     1     -10.199 -18.377  22.706  1.00  0.00    +0.138 C 
ATOM     30  C   UNL     1     -11.700 -16.529  21.930  1.00  0.00    +0.138 C 
ATOM     31  C   UNL     1      -9.682 -18.350  21.247  1.00  0.00    +0.138 C 
ATOM     32  C   UNL     1     -11.995 -17.515  20.774  1.00  0.00    +0.138 C 
ATOM     33  N   UNL     1     -10.771 -18.162  20.271  1.00  0.00    -0.368 N 
BRANCH  33  34
ATOM     34  C   UNL     1     -10.688 -18.672  18.988  1.00  0.00    +0.037 A 
ATOM     35  C   UNL     1      -9.896 -19.785  18.684  1.00  0.00    +0.028 A 
ATOM     36  C   UNL     1     -11.380 -18.105  17.913  1.00  0.00    +0.028 A 
ATOM     37  C   UNL     1      -9.801 -20.306  17.380  1.00  0.00    +0.029 A 
ATOM     38  C   UNL     1     -11.293 -18.620  16.608  1.00  0.00    +0.029 A 
ATOM     39  C   UNL     1     -10.500 -19.732  16.314  1.00  0.00    +0.052 A 
BRANCH  39  40
ATOM     40  N   UNL     1     -10.406 -20.256  15.001  1.00  0.00    -0.250 N 
ATOM     41  C   UNL     1     -11.349 -21.000  14.311  1.00  0.00    +0.350 C 
ATOM     42  C   UNL     1      -9.379 -20.118  14.133  1.00  0.00    +0.231 C 
ATOM     43  O   UNL     1     -12.469 -21.353  14.650  1.00  0.00    -0.246 OA
ATOM     44  N   UNL     1     -10.758 -21.278  13.065  1.00  0.00    -0.210 N 
ATOM     45  N   UNL     1      -9.526 -20.682  12.976  1.00  0.00    -0.158 NA
BRANCH  44  46
ATOM     46  C   UNL     1     -11.404 -21.933  11.938  1.00  0.00    +0.110 C 
ATOM     47  C   UNL     1     -12.747 -21.272  11.625  1.00  0.00    +0.033 C 
BRANCH  46  48
ATOM     48  C   UNL     1     -11.590 -23.441  12.183  1.00  0.00    +0.024 C 
ATOM     49  C   UNL     1     -10.379 -24.267  11.768  1.00  0.00    +0.006 C 
ENDBRANCH  46  48
ENDBRANCH  44  46
ENDBRANCH  39  40
ENDBRANCH  33  34
ENDBRANCH   1  28
TORSDOF 11
ENDMDL
MODEL 4
REMARK VINA RESULT:    -8.526      1.859      3.351
REMARK INTER + INTRA:         -15.121
REMARK INTER:                 -14.140
REMARK INTRA:                  -0.982
REMARK UNBOUND:                -1.112
REMARK SMILES CC[C@@H](C)n1ncn(-c2ccc(N3CCN(c4ccc(OC[C@H]5CO[C@](Cn6cncn6)(c6ccc(Cl)cc6Cl)O5)cc4)CC3)cc2)c1=O
REMARK SMILES IDX 17 1 18 2 43 3 20 4 19 5 42 6 21 7 22 8 23 9 26 10 41 11
REMARK SMILES IDX 25 12 24 13 33 14 39 15 38 16 34 17 36 18 35 19 40 20 37 21
REMARK SMILES IDX 27 22 28 23 32 24 29 25 31 26 30 27 16 28 15 29 44 30 14 31
REMARK SMILES IDX 45 32 13 33 12 34 11 35 46 36 10 37 47 38 9 39 8 40 48 41
REMARK SMILES IDX 7 42 49 43 5 44 6 45 3 46 4 47 2 48 1 49
REMARK H PARENT
ROOT
ATOM      1  C   UNL     1     -10.209 -18.757  18.434  1.00  0.00    +0.037 A 
ATOM      2  C   UNL     1      -9.126 -18.210  17.726  1.00  0.00    +0.030 A 
ATOM      3  C   UNL     1     -10.914 -19.782  17.787  1.00  0.00    +0.030 A 
ATOM      4  C   UNL     1      -9.473 -19.684  15.836  1.00  0.00    +0.119 A 
ATOM      5  C   UNL     1      -8.758 -18.661  16.448  1.00  0.00    +0.048 A 
ATOM      6  C   UNL     1     -10.552 -20.241  16.513  1.00  0.00    +0.048 A 
ENDROOT
BRANCH   4   7
ATOM      7  O   UNL     1      -9.228 -20.219  14.604  1.00  0.00    -0.491 OA
BRANCH   7   8
ATOM      8  C   UNL     1      -9.297 -19.332  13.482  1.00  0.00    +0.264 C 
BRANCH   8   9
ATOM      9  C   UNL     1      -9.869 -20.107  12.299  1.00  0.00    +0.185 C 
ATOM     10  C   UNL     1     -11.158 -21.913  11.750  1.00  0.00    +0.217 C 
ATOM     11  O   UNL     1     -11.067 -20.806  12.665  1.00  0.00    -0.335 OA
ATOM     12  O   UNL     1      -9.859 -22.102  11.143  1.00  0.00    -0.341 OA
ATOM     13  C   UNL     1      -8.971 -21.221  11.833  1.00  0.00    +0.200 C 
BRANCH  10  14
ATOM     14  C   UNL     1     -12.178 -21.581  10.648  1.00  0.00    +0.032 A 
ATOM     15  C   UNL     1     -12.032 -21.991   9.306  1.00  0.00    +0.051 A 
ATOM     16  C   UNL     1     -12.992 -21.662   8.341  1.00  0.00    +0.041 A 
ATOM     17  C   UNL     1     -13.319 -20.807  10.967  1.00  0.00    +0.012 A 
ATOM     18  C   UNL     1     -14.109 -20.912   8.693  1.00  0.00    +0.042 A 
ATOM     19  C   UNL     1     -14.274 -20.479  10.002  1.00  0.00    +0.021 A 
ATOM     20 Cl   UNL     1     -10.670 -22.896   8.738  1.00  0.00    -0.084 Cl
ATOM     21 Cl   UNL     1     -15.282 -20.510   7.504  1.00  0.00    -0.084 Cl
ENDBRANCH  10  14
BRANCH  10  22
ATOM     22  C   UNL     1     -11.580 -23.202  12.482  1.00  0.00    +0.217 C 
BRANCH  22  23
ATOM     23  N   UNL     1     -11.218 -24.403  11.761  1.00  0.00    -0.247 N 
ATOM     24  N   UNL     1     -12.139 -25.130  11.099  1.00  0.00    -0.160 NA
ATOM     25  C   UNL     1      -9.990 -24.990  11.683  1.00  0.00    +0.219 A 
ATOM     26  C   UNL     1     -11.394 -26.130  10.621  1.00  0.00    +0.246 A 
ATOM     27  N   UNL     1     -10.069 -26.073  10.945  1.00  0.00    -0.224 NA
ENDBRANCH  22  23
ENDBRANCH  10  22
ENDBRANCH   8   9
ENDBRANCH   7   8
ENDBRANCH   4   7
BRANCH   1  28
ATOM     28  N   UNL     1     -10.562 -18.297  19.691  1.00  0.00    -0.368 N 
ATOM     29  C   UNL     1     -11.907 -17.771  19.978  1.00  0.00    +0.138 C 
ATOM     30  C   UNL     1      -9.666 -18.474  20.849  1.00  0.00    +0.138 C 
ATOM     31  C   UNL     1     -11.911 -16.834  21.209  1.00  0.00    +0.138 C 
ATOM     32  C   UNL     1     -10.443 -18.617  22.180  1.00  0.00    +0.138 C 
ATOM     33  N   UNL     1     -11.359 -17.486  22.411  1.00  0.00    -0.368 N 
BRANCH  33  34
ATOM     34  C   UNL     1     -11.772 -17.128  23.681  1.00  0.00    +0.037 A 
ATOM     35  C   UNL     1     -10.918 -16.484  24.583  1.00  0.00    +0.028 A 
ATOM     36  C   UNL     1     -13.064 -17.394  24.149  1.00  0.00    +0.028 A 
ATOM     37  C   UNL     1     -11.329 -16.122  25.880  1.00  0.00    +0.029 A 
ATOM     38  C   UNL     1     -13.483 -17.033  25.442  1.00  0.00    +0.029 A 
ATOM     39  C   UNL     1     -12.623 -16.391  26.336  1.00  0.00    +0.052 A 
BRANCH  39  40
ATOM     40  N   UNL     1     -13.038 -16.026  27.640  1.00  0.00    -0.250 N 
ATOM     41  C   UNL     1     -13.567 -14.816  28.059  1.00  0.00    +0.350 C 
ATOM     42  C   UNL     1     -13.028 -16.796  28.751  1.00  0.00    +0.231 C 
ATOM     43  O   UNL     1     -13.818 -13.807  27.417  1.00  0.00    -0.246 OA
ATOM     44  N   UNL     1     -13.794 -14.972  29.438  1.00  0.00    -0.210 N 
ATOM     45  N   UNL     1     -13.470 -16.243  29.836  1.00  0.00    -0.158 NA
BRANCH  44  46
ATOM     46  C   UNL     1     -14.455 -14.014  30.311  1.00  0.00    +0.110 C 
ATOM     47  C   UNL     1     -13.684 -13.854  31.622  1.00  0.00    +0.033 C 
BRANCH  46  48
ATOM     48  C   UNL     1     -15.917 -14.407  30.589  1.00  0.00    +0.024 C 
ATOM     49  C   UNL     1     -16.802 -14.333  29.352  1.00  0.00    +0.006 C 
ENDBRANCH  46  48
ENDBRANCH  44  46
ENDBRANCH  39  40
ENDBRANCH  33  34
ENDBRANCH   1  28
TORSDOF 11
ENDMDL
MODEL 5
REMARK VINA RESULT:    -8.481      5.708     17.189
REMARK INTER + INTRA:         -15.048
REMARK INTER:                 -14.069
REMARK INTRA:                  -0.978
REMARK UNBOUND:                -1.112
REMARK SMILES CC[C@@H](C)n1ncn(-c2ccc(N3CCN(c4ccc(OC[C@H]5CO[C@](Cn6cncn6)(c6ccc(Cl)cc6Cl)O5)cc4)CC3)cc2)c1=O
REMARK SMILES IDX 17 1 18 2 43 3 20 4 19 5 42 6 21 7 22 8 23 9 26 10 41 11
REMARK SMILES IDX 25 12 24 13 33 14 39 15 38 16 34 17 36 18 35 19 40 20 37 21
REMARK SMILES IDX 27 22 28 23 32 24 29 25 31 26 30 27 16 28 15 29 44 30 14 31
REMARK SMILES IDX 45 32 13 33 12 34 11 35 46 36 10 37 47 38 9 39 8 40 48 41
REMARK SMILES IDX 7 42 49 43 5 44 6 45 3 46 4 47 2 48 1 49
REMARK H PARENT
ROOT
ATOM      1  C   UNL     1     -12.142 -17.174  23.055  1.00  0.00    +0.037 A 
ATOM      2  C   UNL     1     -11.293 -16.576  24.001  1.00  0.00    +0.030 A 
ATOM      3  C   UNL     1     -13.429 -17.505  23.502  1.00  0.00    +0.030 A 
ATOM      4  C   UNL     1     -12.988 -16.648  25.730  1.00  0.00    +0.119 A 
ATOM      5  C   UNL     1     -11.703 -16.313  25.318  1.00  0.00    +0.048 A 
ATOM      6  C   UNL     1     -13.848 -17.244  24.814  1.00  0.00    +0.048 A 
ENDROOT
BRANCH   4   7
ATOM      7  O   UNL     1     -13.517 -16.451  26.973  1.00  0.00    -0.491 OA
BRANCH   7   8
ATOM      8  C   UNL     1     -12.766 -16.943  28.088  1.00  0.00    +0.264 C 
BRANCH   8   9
ATOM      9  C   UNL     1     -12.776 -15.876  29.176  1.00  0.00    +0.185 C 
ATOM     10  C   UNL     1     -14.149 -14.748  30.616  1.00  0.00    +0.217 C 
ATOM     11  O   UNL     1     -13.886 -16.053  30.069  1.00  0.00    -0.335 OA
ATOM     12  O   UNL     1     -13.499 -13.769  29.774  1.00  0.00    -0.341 OA
ATOM     13  C   UNL     1     -13.008 -14.488  28.642  1.00  0.00    +0.200 C 
BRANCH  10  14
ATOM     14  C   UNL     1     -13.554 -14.661  32.032  1.00  0.00    +0.032 A 
ATOM     15  C   UNL     1     -13.344 -13.441  32.711  1.00  0.00    +0.051 A 
ATOM     16  C   UNL     1     -12.799 -13.417  34.001  1.00  0.00    +0.041 A 
ATOM     17  C   UNL     1     -13.170 -15.847  32.699  1.00  0.00    +0.012 A 
ATOM     18  C   UNL     1     -12.446 -14.604  34.633  1.00  0.00    +0.042 A 
ATOM     19  C   UNL     1     -12.625 -15.819  33.986  1.00  0.00    +0.021 A 
ATOM     20 Cl   UNL     1     -13.708 -11.899  32.015  1.00  0.00    -0.084 Cl
ATOM     21 Cl   UNL     1     -11.776 -14.566  36.215  1.00  0.00    -0.084 Cl
ENDBRANCH  10  14
BRANCH  10  22
ATOM     22  C   UNL     1     -15.663 -14.465  30.668  1.00  0.00    +0.217 C 
BRANCH  22  23
ATOM     23  N   UNL     1     -16.230 -14.196  29.363  1.00  0.00    -0.247 N 
ATOM     24  N   UNL     1     -16.672 -15.193  28.571  1.00  0.00    -0.160 NA
ATOM     25  C   UNL     1     -16.349 -12.991  28.739  1.00  0.00    +0.219 A 
ATOM     26  C   UNL     1     -17.070 -14.514  27.491  1.00  0.00    +0.246 A 
ATOM     27  N   UNL     1     -16.902 -13.161  27.560  1.00  0.00    -0.224 NA
ENDBRANCH  22  23
ENDBRANCH  10  22
ENDBRANCH   8   9
ENDBRANCH   7   8
ENDBRANCH   4   7
BRANCH   1  28
ATOM     28  N   UNL     1     -11.721 -17.431  21.761  1.00  0.00    -0.368 N 
ATOM     29  C   UNL     1     -10.539 -18.261  21.478  1.00  0.00    +0.138 C 
ATOM     30  C   UNL     1     -12.535 -17.032  20.599  1.00  0.00    +0.138 C 
ATOM     31  C   UNL     1      -9.942 -17.961  20.082  1.00  0.00    +0.138 C 
ATOM     32  C   UNL     1     -12.350 -17.985  19.393  1.00  0.00    +0.138 C 
ATOM     33  N   UNL     1     -10.935 -18.117  19.004  1.00  0.00    -0.368 N 
BRANCH  33  34
ATOM     34  C   UNL     1     -10.561 -18.482  17.724  1.00  0.00    +0.037 A 
ATOM     35  C   UNL     1      -9.219 -18.519  17.327  1.00  0.00    +0.028 A 
ATOM     36  C   UNL     1     -11.495 -18.830  16.742  1.00  0.00    +0.028 A 
ATOM     37  C   UNL     1      -8.830 -18.884  16.025  1.00  0.00    +0.029 A 
ATOM     38  C   UNL     1     -11.115 -19.198  15.440  1.00  0.00    +0.029 A 
ATOM     39  C   UNL     1      -9.773 -19.231  15.053  1.00  0.00    +0.052 A 
BRANCH  39  40
ATOM     40  N   UNL     1      -9.383 -19.600  13.742  1.00  0.00    -0.250 N 
ATOM     41  C   UNL     1      -9.797 -20.698  13.006  1.00  0.00    +0.350 C 
ATOM     42  C   UNL     1      -8.537 -18.938  12.921  1.00  0.00    +0.231 C 
ATOM     43  O   UNL     1     -10.597 -21.576  13.294  1.00  0.00    -0.246 OA
ATOM     44  N   UNL     1      -9.105 -20.605  11.786  1.00  0.00    -0.210 N 
ATOM     45  N   UNL     1      -8.340 -19.467  11.754  1.00  0.00    -0.158 NA
BRANCH  44  46
ATOM     46  C   UNL     1      -9.293 -21.465  10.627  1.00  0.00    +0.110 C 
ATOM     47  C   UNL     1      -8.227 -21.184   9.567  1.00  0.00    +0.033 C 
BRANCH  46  48
ATOM     48  C   UNL     1     -10.702 -21.319  10.028  1.00  0.00    +0.024 C 
ATOM     49  C   UNL     1     -11.378 -22.656   9.757  1.00  0.00    +0.006 C 
ENDBRANCH  46  48
ENDBRANCH  44  46
ENDBRANCH  39  40
ENDBRANCH  33  34
ENDBRANCH   1  28
TORSDOF 11
ENDMDL
MODEL 6
REMARK VINA RESULT:    -8.359      5.430     16.747
REMARK INTER + INTRA:         -14.846
REMARK INTER:                 -13.693
REMARK INTRA:                  -1.153
REMARK UNBOUND:                -1.112
REMARK SMILES CC[C@@H](C)n1ncn(-c2ccc(N3CCN(c4ccc(OC[C@H]5CO[C@](Cn6cncn6)(c6ccc(Cl)cc6Cl)O5)cc4)CC3)cc2)c1=O
REMARK SMILES IDX 17 1 18 2 43 3 20 4 19 5 42 6 21 7 22 8 23 9 26 10 41 11
REMARK SMILES IDX 25 12 24 13 33 14 39 15 38 16 34 17 36 18 35 19 40 20 37 21
REMARK SMILES IDX 27 22 28 23 32 24 29 25 31 26 30 27 16 28 15 29 44 30 14 31
REMARK SMILES IDX 45 32 13 33 12 34 11 35 46 36 10 37 47 38 9 39 8 40 48 41
REMARK SMILES IDX 7 42 49 43 5 44 6 45 3 46 4 47 2 48 1 49
REMARK H PARENT
ROOT
ATOM      1  C   UNL     1     -11.167 -16.229  23.135  1.00  0.00    +0.037 A 
ATOM      2  C   UNL     1     -11.765 -16.699  24.317  1.00  0.00    +0.030 A 
ATOM      3  C   UNL     1     -10.468 -15.018  23.236  1.00  0.00    +0.030 A 
ATOM      4  C   UNL     1     -10.962 -14.811  25.604  1.00  0.00    +0.119 A 
ATOM      5  C   UNL     1     -11.667 -16.007  25.534  1.00  0.00    +0.048 A 
ATOM      6  C   UNL     1     -10.364 -14.322  24.448  1.00  0.00    +0.048 A 
ENDROOT
BRANCH   4   7
ATOM      7  O   UNL     1     -10.787 -14.037  26.715  1.00  0.00    -0.491 OA
BRANCH   7   8
ATOM      8  C   UNL     1     -11.953 -13.420  27.271  1.00  0.00    +0.264 C 
BRANCH   8   9
ATOM      9  C   UNL     1     -11.951 -13.668  28.775  1.00  0.00    +0.185 C 
ATOM     10  C   UNL     1     -13.287 -14.281  30.527  1.00  0.00    +0.217 C 
ATOM     11  O   UNL     1     -12.988 -14.586  29.153  1.00  0.00    -0.335 OA
ATOM     12  O   UNL     1     -12.750 -12.971  30.823  1.00  0.00    -0.341 OA
ATOM     13  C   UNL     1     -12.295 -12.442  29.577  1.00  0.00    +0.200 C 
BRANCH  10  14
ATOM     14  C   UNL     1     -12.606 -15.316  31.438  1.00  0.00    +0.032 A 
ATOM     15  C   UNL     1     -12.696 -15.288  32.846  1.00  0.00    +0.051 A 
ATOM     16  C   UNL     1     -12.057 -16.257  33.630  1.00  0.00    +0.041 A 
ATOM     17  C   UNL     1     -11.828 -16.346  30.860  1.00  0.00    +0.012 A 
ATOM     18  C   UNL     1     -11.311 -17.263  33.027  1.00  0.00    +0.042 A 
ATOM     19  C   UNL     1     -11.190 -17.310  31.645  1.00  0.00    +0.021 A 
ATOM     20 Cl   UNL     1     -13.562 -14.066  33.713  1.00  0.00    -0.084 Cl
ATOM     21 Cl   UNL     1     -10.527 -18.447  33.996  1.00  0.00    -0.084 Cl
ENDBRANCH  10  14
BRANCH  10  22
ATOM     22  C   UNL     1     -14.808 -14.286  30.776  1.00  0.00    +0.217 C 
BRANCH  22  23
ATOM     23  N   UNL     1     -15.577 -14.123  29.560  1.00  0.00    -0.247 N 
ATOM     24  N   UNL     1     -16.204 -15.165  28.981  1.00  0.00    -0.160 NA
ATOM     25  C   UNL     1     -15.737 -12.989  28.821  1.00  0.00    +0.219 A 
ATOM     26  C   UNL     1     -16.747 -14.583  27.908  1.00  0.00    +0.246 A 
ATOM     27  N   UNL     1     -16.495 -13.247  27.781  1.00  0.00    -0.224 NA
ENDBRANCH  22  23
ENDBRANCH  10  22
ENDBRANCH   8   9
ENDBRANCH   7   8
ENDBRANCH   4   7
BRANCH   1  28
ATOM     28  N   UNL     1     -11.276 -16.921  21.941  1.00  0.00    -0.368 N 
ATOM     29  C   UNL     1     -12.037 -16.388  20.799  1.00  0.00    +0.138 C 
ATOM     30  C   UNL     1     -10.491 -18.144  21.691  1.00  0.00    +0.138 C 
ATOM     31  C   UNL     1     -12.489 -17.507  19.831  1.00  0.00    +0.138 C 
ATOM     32  C   UNL     1     -10.151 -18.331  20.193  1.00  0.00    +0.138 C 
ATOM     33  N   UNL     1     -11.357 -18.317  19.345  1.00  0.00    -0.368 N 
BRANCH  33  34
ATOM     34  C   UNL     1     -11.386 -18.932  18.107  1.00  0.00    +0.037 A 
ATOM     35  C   UNL     1     -11.415 -18.196  16.916  1.00  0.00    +0.028 A 
ATOM     36  C   UNL     1     -11.399 -20.323  17.963  1.00  0.00    +0.028 A 
ATOM     37  C   UNL     1     -11.451 -18.814  15.652  1.00  0.00    +0.029 A 
ATOM     38  C   UNL     1     -11.433 -20.949  16.705  1.00  0.00    +0.029 A 
ATOM     39  C   UNL     1     -11.461 -20.206  15.522  1.00  0.00    +0.052 A 
BRANCH  39  40
ATOM     40  N   UNL     1     -11.496 -20.829  14.250  1.00  0.00    -0.250 N 
ATOM     41  C   UNL     1     -10.454 -20.992  13.351  1.00  0.00    +0.350 C 
ATOM     42  C   UNL     1     -12.556 -21.421  13.654  1.00  0.00    +0.231 C 
ATOM     43  O   UNL     1      -9.280 -20.668  13.447  1.00  0.00    -0.246 OA
ATOM     44  N   UNL     1     -11.021 -21.656  12.248  1.00  0.00    -0.210 N 
ATOM     45  N   UNL     1     -12.342 -21.936  12.485  1.00  0.00    -0.158 NA
BRANCH  44  46
ATOM     46  C   UNL     1     -10.300 -22.160  11.090  1.00  0.00    +0.110 C 
ATOM     47  C   UNL     1     -11.275 -22.608   9.999  1.00  0.00    +0.033 C 
BRANCH  46  48
ATOM     48  C   UNL     1      -9.344 -23.306  11.463  1.00  0.00    +0.024 C 
ATOM     49  C   UNL     1     -10.061 -24.627  11.707  1.00  0.00    +0.006 C 
ENDBRANCH  46  48
ENDBRANCH  44  46
ENDBRANCH  39  40
ENDBRANCH  33  34
ENDBRANCH   1  28
TORSDOF 11
ENDMDL
MODEL 7
REMARK VINA RESULT:    -8.194      5.625     17.043
REMARK INTER + INTRA:         -14.576
REMARK INTER:                 -13.615
REMARK INTRA:                  -0.961
REMARK UNBOUND:                -1.112
REMARK SMILES CC[C@@H](C)n1ncn(-c2ccc(N3CCN(c4ccc(OC[C@H]5CO[C@](Cn6cncn6)(c6ccc(Cl)cc6Cl)O5)cc4)CC3)cc2)c1=O
REMARK SMILES IDX 17 1 18 2 43 3 20 4 19 5 42 6 21 7 22 8 23 9 26 10 41 11
REMARK SMILES IDX 25 12 24 13 33 14 39 15 38 16 34 17 36 18 35 19 40 20 37 21
REMARK SMILES IDX 27 22 28 23 32 24 29 25 31 26 30 27 16 28 15 29 44 30 14 31
REMARK SMILES IDX 45 32 13 33 12 34 11 35 46 36 10 37 47 38 9 39 8 40 48 41
REMARK SMILES IDX 7 42 49 43 5 44 6 45 3 46 4 47 2 48 1 49
REMARK H PARENT
ROOT
ATOM      1  C   UNL     1     -11.592 -16.771  23.373  1.00  0.00    +0.037 A 
ATOM      2  C   UNL     1     -10.706 -15.854  23.962  1.00  0.00    +0.030 A 
ATOM      3  C   UNL     1     -12.668 -17.189  24.169  1.00  0.00    +0.030 A 
ATOM      4  C   UNL     1     -11.963 -15.801  26.032  1.00  0.00    +0.119 A 
ATOM      5  C   UNL     1     -10.883 -15.372  25.269  1.00  0.00    +0.048 A 
ATOM      6  C   UNL     1     -12.854 -16.711  25.474  1.00  0.00    +0.048 A 
ENDROOT
BRANCH   4   7
ATOM      7  O   UNL     1     -12.256 -15.416  27.309  1.00  0.00    -0.491 OA
BRANCH   7   8
ATOM      8  C   UNL     1     -11.840 -14.106  27.708  1.00  0.00    +0.264 C 
BRANCH   8   9
ATOM      9  C   UNL     1     -11.923 -14.023  29.228  1.00  0.00    +0.185 C 
ATOM     10  C   UNL     1     -13.366 -14.208  30.992  1.00  0.00    +0.217 C 
ATOM     11  O   UNL     1     -13.010 -14.810  29.734  1.00  0.00    -0.335 OA
ATOM     12  O   UNL     1     -12.796 -12.879  31.030  1.00  0.00    -0.341 OA
ATOM     13  C   UNL     1     -12.260 -12.644  29.727  1.00  0.00    +0.200 C 
BRANCH  10  14
ATOM     14  C   UNL     1     -12.770 -15.038  32.141  1.00  0.00    +0.032 A 
ATOM     15  C   UNL     1     -12.820 -14.639  33.493  1.00  0.00    +0.051 A 
ATOM     16  C   UNL     1     -12.262 -15.434  34.503  1.00  0.00    +0.041 A 
ATOM     17  C   UNL     1     -12.116 -16.258  31.850  1.00  0.00    +0.012 A 
ATOM     18  C   UNL     1     -11.638 -16.634  34.182  1.00  0.00    +0.042 A 
ATOM     19  C   UNL     1     -11.559 -17.048  32.859  1.00  0.00    +0.021 A 
ATOM     20 Cl   UNL     1     -13.534 -13.150  34.013  1.00  0.00    -0.084 Cl
ATOM     21 Cl   UNL     1     -10.954 -17.604  35.425  1.00  0.00    -0.084 Cl
ENDBRANCH  10  14
BRANCH  10  22
ATOM     22  C   UNL     1     -14.897 -14.120  31.149  1.00  0.00    +0.217 C 
BRANCH  22  23
ATOM     23  N   UNL     1     -15.597 -14.183  29.884  1.00  0.00    -0.247 N 
ATOM     24  N   UNL     1     -15.654 -13.119  29.060  1.00  0.00    -0.160 NA
ATOM     25  C   UNL     1     -16.310 -15.228  29.378  1.00  0.00    +0.219 A 
ATOM     26  C   UNL     1     -16.397 -13.600  28.059  1.00  0.00    +0.246 A 
ATOM     27  N   UNL     1     -16.808 -14.894  28.210  1.00  0.00    -0.224 NA
ENDBRANCH  22  23
ENDBRANCH  10  22
ENDBRANCH   8   9
ENDBRANCH   7   8
ENDBRANCH   4   7
BRANCH   1  28
ATOM     28  N   UNL     1     -11.402 -17.241  22.085  1.00  0.00    -0.368 N 
ATOM     29  C   UNL     1     -10.548 -18.406  21.800  1.00  0.00    +0.138 C 
ATOM     30  C   UNL     1     -12.182 -16.708  20.953  1.00  0.00    +0.138 C 
ATOM     31  C   UNL     1     -10.039 -18.406  20.338  1.00  0.00    +0.138 C 
ATOM     32  C   UNL     1     -12.408 -17.763  19.844  1.00  0.00    +0.138 C 
ATOM     33  N   UNL     1     -11.141 -18.341  19.362  1.00  0.00    -0.368 N 
BRANCH  33  34
ATOM     34  C   UNL     1     -11.025 -18.899  18.102  1.00  0.00    +0.037 A 
ATOM     35  C   UNL     1     -11.243 -20.263  17.874  1.00  0.00    +0.028 A 
ATOM     36  C   UNL     1     -10.675 -18.142  16.979  1.00  0.00    +0.028 A 
ATOM     37  C   UNL     1     -11.121 -20.840  16.596  1.00  0.00    +0.029 A 
ATOM     38  C   UNL     1     -10.553 -18.710  15.698  1.00  0.00    +0.029 A 
ATOM     39  C   UNL     1     -10.773 -20.072  15.480  1.00  0.00    +0.052 A 
BRANCH  39  40
ATOM     40  N   UNL     1     -10.651 -20.651  14.193  1.00  0.00    -0.250 N 
ATOM     41  C   UNL     1     -11.622 -21.314  13.461  1.00  0.00    +0.350 C 
ATOM     42  C   UNL     1      -9.560 -20.656  13.395  1.00  0.00    +0.231 C 
ATOM     43  O   UNL     1     -12.794 -21.532  13.732  1.00  0.00    -0.246 OA
ATOM     44  N   UNL     1     -10.985 -21.699  12.268  1.00  0.00    -0.210 N 
ATOM     45  N   UNL     1      -9.692 -21.243  12.247  1.00  0.00    -0.158 NA
BRANCH  44  46
ATOM     46  C   UNL     1     -11.623 -22.322  11.119  1.00  0.00    +0.110 C 
ATOM     47  C   UNL     1     -12.629 -21.367  10.475  1.00  0.00    +0.033 C 
BRANCH  46  48
ATOM     48  C   UNL     1     -12.303 -23.651  11.493  1.00  0.00    +0.024 C 
ATOM     49  C   UNL     1     -11.326 -24.813  11.603  1.00  0.00    +0.006 C 
ENDBRANCH  46  48
ENDBRANCH  44  46
ENDBRANCH  39  40
ENDBRANCH  33  34
ENDBRANCH   1  28
TORSDOF 11
ENDMDL
MODEL 8
REMARK VINA RESULT:    -8.101      5.199     16.899
REMARK INTER + INTRA:         -14.423
REMARK INTER:                 -13.191
REMARK INTRA:                  -1.233
REMARK UNBOUND:                -1.112
REMARK SMILES CC[C@@H](C)n1ncn(-c2ccc(N3CCN(c4ccc(OC[C@H]5CO[C@](Cn6cncn6)(c6ccc(Cl)cc6Cl)O5)cc4)CC3)cc2)c1=O
REMARK SMILES IDX 17 1 18 2 43 3 20 4 19 5 42 6 21 7 22 8 23 9 26 10 41 11
REMARK SMILES IDX 25 12 24 13 33 14 39 15 38 16 34 17 36 18 35 19 40 20 37 21
REMARK SMILES IDX 27 22 28 23 32 24 29 25 31 26 30 27 16 28 15 29 44 30 14 31
REMARK SMILES IDX 45 32 13 33 12 34 11 35 46 36 10 37 47 38 9 39 8 40 48 41
REMARK SMILES IDX 7 42 49 43 5 44 6 45 3 46 4 47 2 48 1 49
REMARK H PARENT
ROOT
ATOM      1  C   UNL     1     -11.520 -16.846  24.036  1.00  0.00    +0.037 A 
ATOM      2  C   UNL     1     -12.757 -17.090  24.656  1.00  0.00    +0.030 A 
ATOM      3  C   UNL     1     -10.567 -16.164  24.806  1.00  0.00    +0.030 A 
ATOM      4  C   UNL     1     -12.062 -16.016  26.713  1.00  0.00    +0.119 A 
ATOM      5  C   UNL     1     -13.029 -16.685  25.973  1.00  0.00    +0.048 A 
ATOM      6  C   UNL     1     -10.830 -15.759  26.122  1.00  0.00    +0.048 A 
ENDROOT
BRANCH   4   7
ATOM      7  O   UNL     1     -12.189 -15.569  27.997  1.00  0.00    -0.491 OA
BRANCH   7   8
ATOM      8  C   UNL     1     -13.513 -15.280  28.458  1.00  0.00    +0.264 C 
BRANCH   8   9
ATOM      9  C   UNL     1     -13.836 -13.834  28.102  1.00  0.00    +0.185 C 
ATOM     10  C   UNL     1     -13.834 -11.703  28.932  1.00  0.00    +0.217 C 
ATOM     11  O   UNL     1     -13.063 -12.917  28.890  1.00  0.00    -0.335 OA
ATOM     12  O   UNL     1     -15.190 -12.019  28.540  1.00  0.00    -0.341 OA
ATOM     13  C   UNL     1     -15.249 -13.442  28.442  1.00  0.00    +0.200 C 
BRANCH  10  14
ATOM     14  C   UNL     1     -13.249 -10.694  27.931  1.00  0.00    +0.032 A 
ATOM     15  C   UNL     1     -11.968 -10.117  28.070  1.00  0.00    +0.051 A 
ATOM     16  C   UNL     1     -11.481  -9.202  27.128  1.00  0.00    +0.041 A 
ATOM     17  C   UNL     1     -14.022 -10.291  26.817  1.00  0.00    +0.012 A 
ATOM     18  C   UNL     1     -12.264  -8.839  26.038  1.00  0.00    +0.042 A 
ATOM     19  C   UNL     1     -13.534  -9.376  25.880  1.00  0.00    +0.021 A 
ATOM     20 Cl   UNL     1     -10.918 -10.460  29.402  1.00  0.00    -0.084 Cl
ATOM     21 Cl   UNL     1     -11.661  -7.713  24.887  1.00  0.00    -0.084 Cl
ENDBRANCH  10  14
BRANCH  10  22
ATOM     22  C   UNL     1     -13.832 -11.096  30.349  1.00  0.00    +0.217 C 
BRANCH  22  23
ATOM     23  N   UNL     1     -13.512 -12.065  31.376  1.00  0.00    -0.247 N 
ATOM     24  N   UNL     1     -14.392 -13.019  31.739  1.00  0.00    -0.160 NA
ATOM     25  C   UNL     1     -12.381 -12.135  32.131  1.00  0.00    +0.219 A 
ATOM     26  C   UNL     1     -13.714 -13.649  32.702  1.00  0.00    +0.246 A 
ATOM     27  N   UNL     1     -12.472 -13.146  32.964  1.00  0.00    -0.224 NA
ENDBRANCH  22  23
ENDBRANCH  10  22
ENDBRANCH   8   9
ENDBRANCH   7   8
ENDBRANCH   4   7
BRANCH   1  28
ATOM     28  N   UNL     1     -11.269 -17.247  22.735  1.00  0.00    -0.368 N 
ATOM     29  C   UNL     1     -10.539 -18.490  22.432  1.00  0.00    +0.138 C 
ATOM     30  C   UNL     1     -11.870 -16.543  21.587  1.00  0.00    +0.138 C 
ATOM     31  C   UNL     1      -9.900 -18.456  21.023  1.00  0.00    +0.138 C 
ATOM     32  C   UNL     1     -12.118 -17.483  20.383  1.00  0.00    +0.138 C 
ATOM     33  N   UNL     1     -10.891 -18.185  19.965  1.00  0.00    -0.368 N 
BRANCH  33  34
ATOM     34  C   UNL     1     -10.727 -18.666  18.679  1.00  0.00    +0.037 A 
ATOM     35  C   UNL     1      -9.937 -19.789  18.405  1.00  0.00    +0.028 A 
ATOM     36  C   UNL     1     -11.330 -18.061  17.572  1.00  0.00    +0.028 A 
ATOM     37  C   UNL     1      -9.759 -20.282  17.099  1.00  0.00    +0.029 A 
ATOM     38  C   UNL     1     -11.160 -18.548  16.264  1.00  0.00    +0.029 A 
ATOM     39  C   UNL     1     -10.369 -19.669  16.000  1.00  0.00    +0.052 A 
BRANCH  39  40
ATOM     40  N   UNL     1     -10.192 -20.165  14.685  1.00  0.00    -0.250 N 
ATOM     41  C   UNL     1     -10.991 -21.065  13.998  1.00  0.00    +0.350 C 
ATOM     42  C   UNL     1      -9.213 -19.842  13.810  1.00  0.00    +0.231 C 
ATOM     43  O   UNL     1     -12.027 -21.614  14.344  1.00  0.00    -0.246 OA
ATOM     44  N   UNL     1     -10.370 -21.229  12.748  1.00  0.00    -0.210 N 
ATOM     45  N   UNL     1      -9.266 -20.421  12.652  1.00  0.00    -0.158 NA
BRANCH  44  46
ATOM     46  C   UNL     1     -10.895 -21.988  11.623  1.00  0.00    +0.110 C 
ATOM     47  C   UNL     1     -12.193 -21.364  11.109  1.00  0.00    +0.033 C 
BRANCH  46  48
ATOM     48  C   UNL     1     -11.114 -23.468  11.984  1.00  0.00    +0.024 C 
ATOM     49  C   UNL     1      -9.852 -24.309  11.847  1.00  0.00    +0.006 C 
ENDBRANCH  46  48
ENDBRANCH  44  46
ENDBRANCH  39  40
ENDBRANCH  33  34
ENDBRANCH   1  28
TORSDOF 11
ENDMDL
MODEL 9
REMARK VINA RESULT:    -7.846      2.569      3.361
REMARK INTER + INTRA:         -14.004
REMARK INTER:                 -12.421
REMARK INTRA:                  -1.583
REMARK UNBOUND:                -1.112
REMARK SMILES CC[C@@H](C)n1ncn(-c2ccc(N3CCN(c4ccc(OC[C@H]5CO[C@](Cn6cncn6)(c6ccc(Cl)cc6Cl)O5)cc4)CC3)cc2)c1=O
REMARK SMILES IDX 17 1 18 2 43 3 20 4 19 5 42 6 21 7 22 8 23 9 26 10 41 11
REMARK SMILES IDX 25 12 24 13 33 14 39 15 38 16 34 17 36 18 35 19 40 20 37 21
REMARK SMILES IDX 27 22 28 23 32 24 29 25 31 26 30 27 16 28 15 29 44 30 14 31
REMARK SMILES IDX 45 32 13 33 12 34 11 35 46 36 10 37 47 38 9 39 8 40 48 41
REMARK SMILES IDX 7 42 49 43 5 44 6 45 3 46 4 47 2 48 1 49
REMARK H PARENT
ROOT
ATOM      1  C   UNL     1     -11.008 -18.626  17.763  1.00  0.00    +0.037 A 
ATOM      2  C   UNL     1     -11.231 -19.956  17.370  1.00  0.00    +0.030 A 
ATOM      3  C   UNL     1     -10.512 -17.765  16.775  1.00  0.00    +0.030 A 
ATOM      4  C   UNL     1     -10.492 -19.526  15.103  1.00  0.00    +0.119 A 
ATOM      5  C   UNL     1     -10.980 -20.405  16.063  1.00  0.00    +0.048 A 
ATOM      6  C   UNL     1     -10.261 -18.204  15.467  1.00  0.00    +0.048 A 
ENDROOT
BRANCH   4   7
ATOM      7  O   UNL     1     -10.206 -19.824  13.802  1.00  0.00    -0.491 OA
BRANCH   7   8
ATOM      8  C   UNL     1     -10.542 -21.138  13.345  1.00  0.00    +0.264 C 
BRANCH   8   9
ATOM      9  C   UNL     1      -9.556 -21.526  12.248  1.00  0.00    +0.185 C 
ATOM     10  C   UNL     1      -8.467 -20.725  10.404  1.00  0.00    +0.217 C 
ATOM     11  O   UNL     1      -8.859 -20.377  11.744  1.00  0.00    -0.335 OA
ATOM     12  O   UNL     1      -9.257 -21.863   9.987  1.00  0.00    -0.341 OA
ATOM     13  C   UNL     1     -10.227 -22.066  11.014  1.00  0.00    +0.200 C 
BRANCH  10  14
ATOM     14  C   UNL     1      -6.981 -21.120  10.394  1.00  0.00    +0.032 A 
ATOM     15  C   UNL     1      -5.964 -20.325  10.964  1.00  0.00    +0.051 A 
ATOM     16  C   UNL     1      -4.623 -20.731  10.928  1.00  0.00    +0.041 A 
ATOM     17  C   UNL     1      -6.586 -22.326   9.771  1.00  0.00    +0.012 A 
ATOM     18  C   UNL     1      -4.273 -21.930  10.319  1.00  0.00    +0.042 A 
ATOM     19  C   UNL     1      -5.248 -22.728   9.736  1.00  0.00    +0.021 A 
ATOM     20 Cl   UNL     1      -6.270 -18.796  11.716  1.00  0.00    -0.084 Cl
ATOM     21 Cl   UNL     1      -2.626 -22.421  10.277  1.00  0.00    -0.084 Cl
ENDBRANCH  10  14
BRANCH  10  22
ATOM     22  C   UNL     1      -8.702 -19.548   9.437  1.00  0.00    +0.217 C 
BRANCH  22  23
ATOM     23  N   UNL     1      -9.714 -18.627   9.907  1.00  0.00    -0.247 N 
ATOM     24  N   UNL     1      -9.386 -17.506  10.578  1.00  0.00    -0.160 NA
ATOM     25  C   UNL     1     -11.067 -18.755   9.810  1.00  0.00    +0.219 A 
ATOM     26  C   UNL     1     -10.591 -16.989  10.834  1.00  0.00    +0.246 A 
ATOM     27  N   UNL     1     -11.647 -17.718  10.368  1.00  0.00    -0.224 NA
ENDBRANCH  22  23
ENDBRANCH  10  22
ENDBRANCH   8   9
ENDBRANCH   7   8
ENDBRANCH   4   7
BRANCH   1  28
ATOM     28  N   UNL     1     -11.257 -18.200  19.057  1.00  0.00    -0.368 N 
ATOM     29  C   UNL     1     -12.615 -17.873  19.520  1.00  0.00    +0.138 C 
ATOM     30  C   UNL     1     -10.200 -18.222  20.085  1.00  0.00    +0.138 C 
ATOM     31  C   UNL     1     -12.596 -16.923  20.742  1.00  0.00    +0.138 C 
ATOM     32  C   UNL     1     -10.766 -18.453  21.507  1.00  0.00    +0.138 C 
ATOM     33  N   UNL     1     -11.801 -17.465  21.859  1.00  0.00    -0.368 N 
BRANCH  33  34
ATOM     34  C   UNL     1     -12.092 -17.149  23.174  1.00  0.00    +0.037 A 
ATOM     35  C   UNL     1     -11.166 -16.503  24.002  1.00  0.00    +0.028 A 
ATOM     36  C   UNL     1     -13.323 -17.460  23.763  1.00  0.00    +0.028 A 
ATOM     37  C   UNL     1     -11.452 -16.183  25.342  1.00  0.00    +0.029 A 
ATOM     38  C   UNL     1     -13.617 -17.141  25.100  1.00  0.00    +0.029 A 
ATOM     39  C   UNL     1     -12.687 -16.497  25.919  1.00  0.00    +0.052 A 
BRANCH  39  40
ATOM     40  N   UNL     1     -12.976 -16.174  27.267  1.00  0.00    -0.250 N 
ATOM     41  C   UNL     1     -13.233 -14.925  27.809  1.00  0.00    +0.350 C 
ATOM     42  C   UNL     1     -13.087 -17.027  28.311  1.00  0.00    +0.231 C 
ATOM     43  O   UNL     1     -13.295 -13.833  27.263  1.00  0.00    -0.246 OA
ATOM     44  N   UNL     1     -13.443 -15.155  29.180  1.00  0.00    -0.210 N 
ATOM     45  N   UNL     1     -13.372 -16.496  29.458  1.00  0.00    -0.158 NA
BRANCH  44  46
ATOM     46  C   UNL     1     -13.867 -14.166  30.159  1.00  0.00    +0.110 C 
ATOM     47  C   UNL     1     -12.723 -13.828  31.116  1.00  0.00    +0.033 C 
BRANCH  46  48
ATOM     48  C   UNL     1     -15.107 -14.630  30.943  1.00  0.00    +0.024 C 
ATOM     49  C   UNL     1     -16.403 -14.468  30.161  1.00  0.00    +0.006 C 
ENDBRANCH  46  48
ENDBRANCH  44  46
ENDBRANCH  39  40
ENDBRANCH  33  34
ENDBRANCH   1  28
TORSDOF 11
ENDMDL
