MODEL 1
REMARK VINA RESULT:    -7.879      0.000      0.000
REMARK INTER + INTRA:         -14.298
REMARK INTER:                 -12.945
REMARK INTRA:                  -1.353
REMARK UNBOUND:                -1.353
REMARK SMILES CC[C@@H](C)n1ncn(-c2ccc(N3CCN(c4ccc(OC[C@H]5CO[C@](Cn6cncn6)(c6ccc(Cl)cc6Cl)O5)cc4)CC3)cc2)c1=O
REMARK SMILES IDX 17 1 18 2 43 3 20 4 19 5 42 6 21 7 22 8 23 9 26 10 41 11
REMARK SMILES IDX 25 12 24 13 33 14 39 15 38 16 34 17 36 18 35 19 40 20 37 21
REMARK SMILES IDX 27 22 28 23 32 24 29 25 31 26 30 27 16 28 15 29 44 30 14 31
REMARK SMILES IDX 45 32 13 33 12 34 11 35 46 36 10 37 47 38 9 39 8 40 48 41
REMARK SMILES IDX 7 42 49 43 5 44 6 45 3 46 4 47 2 48 1 49
REMARK H PARENT
ROOT
ATOM      1  C   UNL     1     -24.452   8.092 -13.303  1.00  0.00    +0.037 A 
ATOM      2  C   UNL     1     -25.553   8.535 -14.055  1.00  0.00    +0.030 A 
ATOM      3  C   UNL     1     -23.856   9.043 -12.462  1.00  0.00    +0.030 A 
ATOM      4  C   UNL     1     -25.431  10.768 -13.125  1.00  0.00    +0.119 A 
ATOM      5  C   UNL     1     -26.040   9.850 -13.971  1.00  0.00    +0.048 A 
ATOM      6  C   UNL     1     -24.337  10.357 -12.371  1.00  0.00    +0.048 A 
ENDROOT
BRANCH   4   7
ATOM      7  O   UNL     1     -25.797  12.071 -12.945  1.00  0.00    -0.491 OA
BRANCH   7   8
ATOM      8  C   UNL     1     -25.019  13.066 -13.617  1.00  0.00    +0.264 C 
BRANCH   8   9
ATOM      9  C   UNL     1     -25.968  13.950 -14.420  1.00  0.00    +0.185 C 
ATOM     10  C   UNL     1     -26.218  15.005 -16.433  1.00  0.00    +0.217 C 
ATOM     11  O   UNL     1     -25.772  13.776 -15.831  1.00  0.00    -0.335 OA
ATOM     12  O   UNL     1     -26.281  16.014 -15.398  1.00  0.00    -0.341 OA
ATOM     13  C   UNL     1     -25.707  15.420 -14.234  1.00  0.00    +0.200 C 
BRANCH  10  14
ATOM     14  C   UNL     1     -27.624  14.804 -17.020  1.00  0.00    +0.032 A 
ATOM     15  C   UNL     1     -27.957  13.747 -17.893  1.00  0.00    +0.051 A 
ATOM     16  C   UNL     1     -29.255  13.608 -18.400  1.00  0.00    +0.041 A 
ATOM     17  C   UNL     1     -28.650  15.724 -16.700  1.00  0.00    +0.012 A 
ATOM     18  C   UNL     1     -30.242  14.524 -18.053  1.00  0.00    +0.042 A 
ATOM     19  C   UNL     1     -29.944  15.584 -17.208  1.00  0.00    +0.021 A 
ATOM     20 Cl   UNL     1     -26.808  12.567 -18.427  1.00  0.00    -0.084 Cl
ATOM     21 Cl   UNL     1     -31.832  14.349 -18.680  1.00  0.00    -0.084 Cl
ENDBRANCH  10  14
BRANCH  10  22
ATOM     22  C   UNL     1     -25.249  15.460 -17.542  1.00  0.00    +0.217 C 
BRANCH  22  23
ATOM     23  N   UNL     1     -23.915  14.920 -17.381  1.00  0.00    -0.247 N 
ATOM     24  N   UNL     1     -22.976  15.570 -16.667  1.00  0.00    -0.160 NA
ATOM     25  C   UNL     1     -23.407  13.781 -17.929  1.00  0.00    +0.219 A 
ATOM     26  C   UNL     1     -21.928  14.752 -16.804  1.00  0.00    +0.246 A 
ATOM     27  N   UNL     1     -22.155  13.638 -17.558  1.00  0.00    -0.224 NA
ENDBRANCH  22  23
ENDBRANCH  10  22
ENDBRANCH   8   9
ENDBRANCH   7   8
ENDBRANCH   4   7
BRANCH   1  28
ATOM     28  N   UNL     1     -23.982   6.794 -13.399  1.00  0.00    -0.368 N 
ATOM     29  C   UNL     1     -24.763   5.730 -14.052  1.00  0.00    +0.138 C 
ATOM     30  C   UNL     1     -22.602   6.450 -13.012  1.00  0.00    +0.138 C 
ATOM     31  C   UNL     1     -24.340   4.322 -13.568  1.00  0.00    +0.138 C 
ATOM     32  C   UNL     1     -22.035   5.267 -13.834  1.00  0.00    +0.138 C 
ATOM     33  N   UNL     1     -22.899   4.075 -13.758  1.00  0.00    -0.368 N 
BRANCH  33  34
ATOM     34  C   UNL     1     -22.405   2.801 -13.970  1.00  0.00    +0.037 A 
ATOM     35  C   UNL     1     -21.604   2.491 -15.075  1.00  0.00    +0.028 A 
ATOM     36  C   UNL     1     -22.681   1.739 -13.101  1.00  0.00    +0.028 A 
ATOM     37  C   UNL     1     -21.103   1.196 -15.300  1.00  0.00    +0.029 A 
ATOM     38  C   UNL     1     -22.183   0.442 -13.318  1.00  0.00    +0.029 A 
ATOM     39  C   UNL     1     -21.383   0.143 -14.424  1.00  0.00    +0.052 A 
BRANCH  39  40
ATOM     40  N   UNL     1     -20.879  -1.161 -14.649  1.00  0.00    -0.250 N 
ATOM     41  C   UNL     1     -19.649  -1.520 -15.177  1.00  0.00    +0.350 C 
ATOM     42  C   UNL     1     -21.486  -2.336 -14.371  1.00  0.00    +0.231 C 
ATOM     43  O   UNL     1     -18.719  -0.816 -15.542  1.00  0.00    -0.246 OA
ATOM     44  N   UNL     1     -19.655  -2.926 -15.200  1.00  0.00    -0.210 N 
ATOM     45  N   UNL     1     -20.818  -3.409 -14.658  1.00  0.00    -0.158 NA
BRANCH  44  46
ATOM     46  C   UNL     1     -18.534  -3.781 -15.559  1.00  0.00    +0.110 C 
ATOM     47  C   UNL     1     -18.499  -4.019 -17.070  1.00  0.00    +0.033 C 
BRANCH  46  48
ATOM     48  C   UNL     1     -18.570  -5.120 -14.803  1.00  0.00    +0.024 C 
ATOM     49  C   UNL     1     -17.810  -5.083 -13.484  1.00  0.00    +0.006 C 
ENDBRANCH  46  48
ENDBRANCH  44  46
ENDBRANCH  39  40
ENDBRANCH  33  34
ENDBRANCH   1  28
TORSDOF 11
ENDMDL
MODEL 2
REMARK VINA RESULT:    -7.725      2.338      3.885
REMARK INTER + INTRA:         -14.046
REMARK INTER:                 -13.027
REMARK INTRA:                  -1.019
REMARK UNBOUND:                -1.353
REMARK SMILES CC[C@@H](C)n1ncn(-c2ccc(N3CCN(c4ccc(OC[C@H]5CO[C@](Cn6cncn6)(c6ccc(Cl)cc6Cl)O5)cc4)CC3)cc2)c1=O
REMARK SMILES IDX 17 1 18 2 43 3 20 4 19 5 42 6 21 7 22 8 23 9 26 10 41 11
REMARK SMILES IDX 25 12 24 13 33 14 39 15 38 16 34 17 36 18 35 19 40 20 37 21
REMARK SMILES IDX 27 22 28 23 32 24 29 25 31 26 30 27 16 28 15 29 44 30 14 31
REMARK SMILES IDX 45 32 13 33 12 34 11 35 46 36 10 37 47 38 9 39 8 40 48 41
REMARK SMILES IDX 7 42 49 43 5 44 6 45 3 46 4 47 2 48 1 49
REMARK H PARENT
ROOT
ATOM      1  C   UNL     1     -24.266   7.506 -13.324  1.00  0.00    +0.037 A 
ATOM      2  C   UNL     1     -23.566   8.456 -12.562  1.00  0.00    +0.030 A 
ATOM      3  C   UNL     1     -25.446   7.953 -13.935  1.00  0.00    +0.030 A 
ATOM      4  C   UNL     1     -25.182  10.195 -13.043  1.00  0.00    +0.119 A 
ATOM      5  C   UNL     1     -24.011   9.781 -12.420  1.00  0.00    +0.048 A 
ATOM      6  C   UNL     1     -25.896   9.274 -13.801  1.00  0.00    +0.048 A 
ENDROOT
BRANCH   4   7
ATOM      7  O   UNL     1     -25.728  11.446 -12.992  1.00  0.00    -0.491 OA
BRANCH   7   8
ATOM      8  C   UNL     1     -24.875  12.544 -13.330  1.00  0.00    +0.264 C 
BRANCH   8   9
ATOM      9  C   UNL     1     -24.582  12.475 -14.825  1.00  0.00    +0.185 C 
ATOM     10  C   UNL     1     -24.315  13.762 -16.695  1.00  0.00    +0.217 C 
ATOM     11  O   UNL     1     -23.988  13.693 -15.296  1.00  0.00    -0.335 OA
ATOM     12  O   UNL     1     -25.403  12.843 -16.948  1.00  0.00    -0.341 OA
ATOM     13  C   UNL     1     -25.824  12.372 -15.667  1.00  0.00    +0.200 C 
BRANCH  10  14
ATOM     14  C   UNL     1     -23.095  13.329 -17.525  1.00  0.00    +0.032 A 
ATOM     15  C   UNL     1     -21.898  14.074 -17.591  1.00  0.00    +0.051 A 
ATOM     16  C   UNL     1     -20.814  13.635 -18.362  1.00  0.00    +0.041 A 
ATOM     17  C   UNL     1     -23.159  12.139 -18.287  1.00  0.00    +0.012 A 
ATOM     18  C   UNL     1     -20.908  12.452 -19.088  1.00  0.00    +0.042 A 
ATOM     19  C   UNL     1     -22.077  11.704 -19.056  1.00  0.00    +0.021 A 
ATOM     20 Cl   UNL     1     -21.676  15.579 -16.764  1.00  0.00    -0.084 Cl
ATOM     21 Cl   UNL     1     -19.575  11.920 -20.034  1.00  0.00    -0.084 Cl
ENDBRANCH  10  14
BRANCH  10  22
ATOM     22  C   UNL     1     -24.739  15.190 -17.094  1.00  0.00    +0.217 C 
BRANCH  22  23
ATOM     23  N   UNL     1     -25.850  15.687 -16.310  1.00  0.00    -0.247 N 
ATOM     24  N   UNL     1     -27.121  15.563 -16.738  1.00  0.00    -0.160 NA
ATOM     25  C   UNL     1     -25.799  16.362 -15.128  1.00  0.00    +0.219 A 
ATOM     26  C   UNL     1     -27.791  16.164 -15.750  1.00  0.00    +0.246 A 
ATOM     27  N   UNL     1     -27.017  16.655 -14.737  1.00  0.00    -0.224 NA
ENDBRANCH  22  23
ENDBRANCH  10  22
ENDBRANCH   8   9
ENDBRANCH   7   8
ENDBRANCH   4   7
BRANCH   1  28
ATOM     28  N   UNL     1     -23.817   6.202 -13.450  1.00  0.00    -0.368 N 
ATOM     29  C   UNL     1     -24.376   5.282 -14.454  1.00  0.00    +0.138 C 
ATOM     30  C   UNL     1     -22.638   5.724 -12.706  1.00  0.00    +0.138 C 
ATOM     31  C   UNL     1     -24.157   3.800 -14.065  1.00  0.00    +0.138 C 
ATOM     32  C   UNL     1     -21.867   4.620 -13.469  1.00  0.00    +0.138 C 
ATOM     33  N   UNL     1     -22.735   3.487 -13.831  1.00  0.00    -0.368 N 
BRANCH  33  34
ATOM     34  C   UNL     1     -22.228   2.220 -14.055  1.00  0.00    +0.037 A 
ATOM     35  C   UNL     1     -21.401   1.936 -15.148  1.00  0.00    +0.028 A 
ATOM     36  C   UNL     1     -22.514   1.140 -13.212  1.00  0.00    +0.028 A 
ATOM     37  C   UNL     1     -20.886   0.649 -15.387  1.00  0.00    +0.029 A 
ATOM     38  C   UNL     1     -22.001  -0.149 -13.442  1.00  0.00    +0.029 A 
ATOM     39  C   UNL     1     -21.177  -0.422 -14.535  1.00  0.00    +0.052 A 
BRANCH  39  40
ATOM     40  N   UNL     1     -20.657  -1.718 -14.773  1.00  0.00    -0.250 N 
ATOM     41  C   UNL     1     -19.411  -2.059 -15.274  1.00  0.00    +0.350 C 
ATOM     42  C   UNL     1     -21.265  -2.902 -14.537  1.00  0.00    +0.231 C 
ATOM     43  O   UNL     1     -18.476  -1.342 -15.599  1.00  0.00    -0.246 OA
ATOM     44  N   UNL     1     -19.408  -3.464 -15.326  1.00  0.00    -0.210 N 
ATOM     45  N   UNL     1     -20.583  -3.965 -14.827  1.00  0.00    -0.158 NA
BRANCH  44  46
ATOM     46  C   UNL     1     -18.272  -4.305 -15.672  1.00  0.00    +0.110 C 
ATOM     47  C   UNL     1     -18.285  -4.645 -17.163  1.00  0.00    +0.033 C 
BRANCH  46  48
ATOM     48  C   UNL     1     -18.232  -5.589 -14.825  1.00  0.00    +0.024 C 
ATOM     49  C   UNL     1     -17.510  -5.408 -13.497  1.00  0.00    +0.006 C 
ENDBRANCH  46  48
ENDBRANCH  44  46
ENDBRANCH  39  40
ENDBRANCH  33  34
ENDBRANCH   1  28
TORSDOF 11
ENDMDL
MODEL 3
REMARK VINA RESULT:    -7.531      5.541      7.205
REMARK INTER + INTRA:         -13.728
REMARK INTER:                 -12.193
REMARK INTRA:                  -1.535
REMARK UNBOUND:                -1.353
REMARK SMILES CC[C@@H](C)n1ncn(-c2ccc(N3CCN(c4ccc(OC[C@H]5CO[C@](Cn6cncn6)(c6ccc(Cl)cc6Cl)O5)cc4)CC3)cc2)c1=O
REMARK SMILES IDX 17 1 18 2 43 3 20 4 19 5 42 6 21 7 22 8 23 9 26 10 41 11
REMARK SMILES IDX 25 12 24 13 33 14 39 15 38 16 34 17 36 18 35 19 40 20 37 21
REMARK SMILES IDX 27 22 28 23 32 24 29 25 31 26 30 27 16 28 15 29 44 30 14 31
REMARK SMILES IDX 45 32 13 33 12 34 11 35 46 36 10 37 47 38 9 39 8 40 48 41
REMARK SMILES IDX 7 42 49 43 5 44 6 45 3 46 4 47 2 48 1 49
REMARK H PARENT
ROOT
ATOM      1  C   UNL     1     -23.020   7.916 -15.314  1.00  0.00    +0.037 A 
ATOM      2  C   UNL     1     -22.811   8.850 -14.286  1.00  0.00    +0.030 A 
ATOM      3  C   UNL     1     -22.243   8.084 -16.469  1.00  0.00    +0.030 A 
ATOM      4  C   UNL     1     -21.116  10.030 -15.552  1.00  0.00    +0.119 A 
ATOM      5  C   UNL     1     -21.876   9.892 -14.396  1.00  0.00    +0.048 A 
ATOM      6  C   UNL     1     -21.305   9.120 -16.586  1.00  0.00    +0.048 A 
ENDROOT
BRANCH   4   7
ATOM      7  O   UNL     1     -20.176  10.989 -15.793  1.00  0.00    -0.491 OA
BRANCH   7   8
ATOM      8  C   UNL     1     -20.423  11.887 -16.880  1.00  0.00    +0.264 C 
BRANCH   8   9
ATOM      9  C   UNL     1     -21.394  12.960 -16.398  1.00  0.00    +0.185 C 
ATOM     10  C   UNL     1     -23.419  13.924 -16.843  1.00  0.00    +0.217 C 
ATOM     11  O   UNL     1     -22.742  12.655 -16.786  1.00  0.00    -0.335 OA
ATOM     12  O   UNL     1     -22.418  14.966 -16.895  1.00  0.00    -0.341 OA
ATOM     13  C   UNL     1     -21.164  14.299 -17.046  1.00  0.00    +0.200 C 
BRANCH  10  14
ATOM     14  C   UNL     1     -24.263  14.107 -15.571  1.00  0.00    +0.032 A 
ATOM     15  C   UNL     1     -24.734  15.361 -15.126  1.00  0.00    +0.051 A 
ATOM     16  C   UNL     1     -25.501  15.473 -13.959  1.00  0.00    +0.041 A 
ATOM     17  C   UNL     1     -24.580  12.979 -14.779  1.00  0.00    +0.012 A 
ATOM     18  C   UNL     1     -25.805  14.341 -13.212  1.00  0.00    +0.042 A 
ATOM     19  C   UNL     1     -25.345  13.094 -13.615  1.00  0.00    +0.021 A 
ATOM     20 Cl   UNL     1     -24.389  16.844 -15.949  1.00  0.00    -0.084 Cl
ATOM     21 Cl   UNL     1     -26.745  14.485 -11.781  1.00  0.00    -0.084 Cl
ENDBRANCH  10  14
BRANCH  10  22
ATOM     22  C   UNL     1     -24.324  14.012 -18.088  1.00  0.00    +0.217 C 
BRANCH  22  23
ATOM     23  N   UNL     1     -23.818  13.245 -19.207  1.00  0.00    -0.247 N 
ATOM     24  N   UNL     1     -22.886  13.749 -20.040  1.00  0.00    -0.160 NA
ATOM     25  C   UNL     1     -24.208  12.003 -19.610  1.00  0.00    +0.219 A 
ATOM     26  C   UNL     1     -22.741  12.746 -20.910  1.00  0.00    +0.246 A 
ATOM     27  N   UNL     1     -23.523  11.653 -20.674  1.00  0.00    -0.224 NA
ENDBRANCH  22  23
ENDBRANCH  10  22
ENDBRANCH   8   9
ENDBRANCH   7   8
ENDBRANCH   4   7
BRANCH   1  28
ATOM     28  N   UNL     1     -23.949   6.897 -15.192  1.00  0.00    -0.368 N 
ATOM     29  C   UNL     1     -24.132   6.158 -13.931  1.00  0.00    +0.138 C 
ATOM     30  C   UNL     1     -24.924   6.619 -16.262  1.00  0.00    +0.138 C 
ATOM     31  C   UNL     1     -24.768   4.766 -14.164  1.00  0.00    +0.138 C 
ATOM     32  C   UNL     1     -26.257   6.052 -15.714  1.00  0.00    +0.138 C 
ATOM     33  N   UNL     1     -26.050   4.851 -14.887  1.00  0.00    -0.368 N 
BRANCH  33  34
ATOM     34  C   UNL     1     -27.046   3.910 -14.703  1.00  0.00    +0.037 A 
ATOM     35  C   UNL     1     -26.761   2.545 -14.577  1.00  0.00    +0.028 A 
ATOM     36  C   UNL     1     -28.400   4.257 -14.641  1.00  0.00    +0.028 A 
ATOM     37  C   UNL     1     -27.770   1.580 -14.397  1.00  0.00    +0.029 A 
ATOM     38  C   UNL     1     -29.414   3.300 -14.458  1.00  0.00    +0.029 A 
ATOM     39  C   UNL     1     -29.119   1.940 -14.333  1.00  0.00    +0.052 A 
BRANCH  39  40
ATOM     40  N   UNL     1     -30.135   0.970 -14.150  1.00  0.00    -0.250 N 
ATOM     41  C   UNL     1     -30.122  -0.131 -13.309  1.00  0.00    +0.350 C 
ATOM     42  C   UNL     1     -31.349   0.930 -14.744  1.00  0.00    +0.231 C 
ATOM     43  O   UNL     1     -29.262  -0.506 -12.525  1.00  0.00    -0.246 OA
ATOM     44  N   UNL     1     -31.358  -0.768 -13.517  1.00  0.00    -0.210 N 
ATOM     45  N   UNL     1     -32.120  -0.056 -14.408  1.00  0.00    -0.158 NA
BRANCH  44  46
ATOM     46  C   UNL     1     -31.869  -1.908 -12.773  1.00  0.00    +0.110 C 
ATOM     47  C   UNL     1     -31.669  -3.203 -13.562  1.00  0.00    +0.033 C 
BRANCH  46  48
ATOM     48  C   UNL     1     -33.350  -1.730 -12.396  1.00  0.00    +0.024 C 
ATOM     49  C   UNL     1     -33.555  -0.828 -11.186  1.00  0.00    +0.006 C 
ENDBRANCH  46  48
ENDBRANCH  44  46
ENDBRANCH  39  40
ENDBRANCH  33  34
ENDBRANCH   1  28
TORSDOF 11
ENDMDL
MODEL 4
REMARK VINA RESULT:    -7.443      2.604      4.733
REMARK INTER + INTRA:         -13.582
REMARK INTER:                 -12.309
REMARK INTRA:                  -1.273
REMARK UNBOUND:                -1.353
REMARK SMILES CC[C@@H](C)n1ncn(-c2ccc(N3CCN(c4ccc(OC[C@H]5CO[C@](Cn6cncn6)(c6ccc(Cl)cc6Cl)O5)cc4)CC3)cc2)c1=O
REMARK SMILES IDX 17 1 18 2 43 3 20 4 19 5 42 6 21 7 22 8 23 9 26 10 41 11
REMARK SMILES IDX 25 12 24 13 33 14 39 15 38 16 34 17 36 18 35 19 40 20 37 21
REMARK SMILES IDX 27 22 28 23 32 24 29 25 31 26 30 27 16 28 15 29 44 30 14 31
REMARK SMILES IDX 45 32 13 33 12 34 11 35 46 36 10 37 47 38 9 39 8 40 48 41
REMARK SMILES IDX 7 42 49 43 5 44 6 45 3 46 4 47 2 48 1 49
REMARK H PARENT
ROOT
ATOM      1  C   UNL     1     -24.806  12.358 -14.135  1.00  0.00    +0.037 A 
ATOM      2  C   UNL     1     -25.727  12.984 -13.278  1.00  0.00    +0.030 A 
ATOM      3  C   UNL     1     -24.245  13.165 -15.134  1.00  0.00    +0.030 A 
ATOM      4  C   UNL     1     -25.488  15.117 -14.401  1.00  0.00    +0.119 A 
ATOM      5  C   UNL     1     -26.066  14.341 -13.403  1.00  0.00    +0.048 A 
ATOM      6  C   UNL     1     -24.576  14.521 -15.265  1.00  0.00    +0.048 A 
ENDROOT
BRANCH   4   7
ATOM      7  O   UNL     1     -25.725  16.441 -14.636  1.00  0.00    -0.491 OA
BRANCH   7   8
ATOM      8  C   UNL     1     -27.087  16.839 -14.816  1.00  0.00    +0.264 C 
BRANCH   8   9
ATOM      9  C   UNL     1     -27.734  15.882 -15.812  1.00  0.00    +0.185 C 
ATOM     10  C   UNL     1     -27.996  15.471 -18.045  1.00  0.00    +0.217 C 
ATOM     11  O   UNL     1     -27.027  15.872 -17.060  1.00  0.00    -0.335 OA
ATOM     12  O   UNL     1     -29.314  15.642 -17.475  1.00  0.00    -0.341 OA
ATOM     13  C   UNL     1     -29.118  16.305 -16.226  1.00  0.00    +0.200 C 
BRANCH  10  14
ATOM     14  C   UNL     1     -27.789  13.987 -18.388  1.00  0.00    +0.032 A 
ATOM     15  C   UNL     1     -26.551  13.451 -18.803  1.00  0.00    +0.051 A 
ATOM     16  C   UNL     1     -26.416  12.089 -19.103  1.00  0.00    +0.041 A 
ATOM     17  C   UNL     1     -28.886  13.096 -18.312  1.00  0.00    +0.012 A 
ATOM     18  C   UNL     1     -27.513  11.240 -19.003  1.00  0.00    +0.042 A 
ATOM     19  C   UNL     1     -28.748  11.739 -18.612  1.00  0.00    +0.021 A 
ATOM     20 Cl   UNL     1     -25.126  14.413 -19.001  1.00  0.00    -0.084 Cl
ATOM     21 Cl   UNL     1     -27.341   9.571 -19.375  1.00  0.00    -0.084 Cl
ENDBRANCH  10  14
BRANCH  10  22
ATOM     22  C   UNL     1     -27.870  16.325 -19.323  1.00  0.00    +0.217 C 
BRANCH  22  23
ATOM     23  N   UNL     1     -29.149  16.606 -19.940  1.00  0.00    -0.247 N 
ATOM     24  N   UNL     1     -29.798  17.765 -19.713  1.00  0.00    -0.160 NA
ATOM     25  C   UNL     1     -29.883  15.788 -20.745  1.00  0.00    +0.219 A 
ATOM     26  C   UNL     1     -30.908  17.590 -20.435  1.00  0.00    +0.246 A 
ATOM     27  N   UNL     1     -30.992  16.397 -21.094  1.00  0.00    -0.224 NA
ENDBRANCH  22  23
ENDBRANCH  10  22
ENDBRANCH   8   9
ENDBRANCH   7   8
ENDBRANCH   4   7
BRANCH   1  28
ATOM     28  N   UNL     1     -24.486  11.017 -14.002  1.00  0.00    -0.368 N 
ATOM     29  C   UNL     1     -25.504   9.960 -14.108  1.00  0.00    +0.138 C 
ATOM     30  C   UNL     1     -23.083  10.571 -13.922  1.00  0.00    +0.138 C 
ATOM     31  C   UNL     1     -25.063   8.658 -13.396  1.00  0.00    +0.138 C 
ATOM     32  C   UNL     1     -22.879   9.156 -14.516  1.00  0.00    +0.138 C 
ATOM     33  N   UNL     1     -23.768   8.160 -13.893  1.00  0.00    -0.368 N 
BRANCH  33  34
ATOM     34  C   UNL     1     -23.458   6.812 -13.878  1.00  0.00    +0.037 A 
ATOM     35  C   UNL     1     -22.136   6.358 -13.814  1.00  0.00    +0.028 A 
ATOM     36  C   UNL     1     -24.442   5.819 -13.935  1.00  0.00    +0.028 A 
ATOM     37  C   UNL     1     -21.812   4.988 -13.805  1.00  0.00    +0.029 A 
ATOM     38  C   UNL     1     -24.127   4.448 -13.923  1.00  0.00    +0.029 A 
ATOM     39  C   UNL     1     -22.804   4.004 -13.859  1.00  0.00    +0.052 A 
BRANCH  39  40
ATOM     40  N   UNL     1     -22.479   2.626 -13.849  1.00  0.00    -0.250 N 
ATOM     41  C   UNL     1     -21.744   1.915 -14.784  1.00  0.00    +0.350 C 
ATOM     42  C   UNL     1     -22.800   1.713 -12.903  1.00  0.00    +0.231 C 
ATOM     43  O   UNL     1     -21.193   2.302 -15.804  1.00  0.00    -0.246 OA
ATOM     44  N   UNL     1     -21.728   0.591 -14.311  1.00  0.00    -0.210 N 
ATOM     45  N   UNL     1     -22.380   0.505 -13.107  1.00  0.00    -0.158 NA
BRANCH  44  46
ATOM     46  C   UNL     1     -20.978  -0.514 -14.886  1.00  0.00    +0.110 C 
ATOM     47  C   UNL     1     -21.422  -0.778 -16.325  1.00  0.00    +0.033 C 
BRANCH  46  48
ATOM     48  C   UNL     1     -21.103  -1.793 -14.039  1.00  0.00    +0.024 C 
ATOM     49  C   UNL     1     -21.238  -3.056 -14.880  1.00  0.00    +0.006 C 
ENDBRANCH  46  48
ENDBRANCH  44  46
ENDBRANCH  39  40
ENDBRANCH  33  34
ENDBRANCH   1  28
TORSDOF 11
ENDMDL
MODEL 5
REMARK VINA RESULT:    -7.369      7.431      8.476
REMARK INTER + INTRA:         -13.460
REMARK INTER:                 -11.684
REMARK INTRA:                  -1.776
REMARK UNBOUND:                -1.353
REMARK SMILES CC[C@@H](C)n1ncn(-c2ccc(N3CCN(c4ccc(OC[C@H]5CO[C@](Cn6cncn6)(c6ccc(Cl)cc6Cl)O5)cc4)CC3)cc2)c1=O
REMARK SMILES IDX 17 1 18 2 43 3 20 4 19 5 42 6 21 7 22 8 23 9 26 10 41 11
REMARK SMILES IDX 25 12 24 13 33 14 39 15 38 16 34 17 36 18 35 19 40 20 37 21
REMARK SMILES IDX 27 22 28 23 32 24 29 25 31 26 30 27 16 28 15 29 44 30 14 31
REMARK SMILES IDX 45 32 13 33 12 34 11 35 46 36 10 37 47 38 9 39 8 40 48 41
REMARK SMILES IDX 7 42 49 43 5 44 6 45 3 46 4 47 2 48 1 49
REMARK H PARENT
ROOT
ATOM      1  C   UNL     1     -23.237  14.359 -15.958  1.00  0.00    +0.037 A 
ATOM      2  C   UNL     1     -23.361  15.714 -16.308  1.00  0.00    +0.030 A 
ATOM      3  C   UNL     1     -24.204  13.859 -15.074  1.00  0.00    +0.030 A 
ATOM      4  C   UNL     1     -25.340  16.001 -14.942  1.00  0.00    +0.119 A 
ATOM      5  C   UNL     1     -24.393  16.527 -15.813  1.00  0.00    +0.048 A 
ATOM      6  C   UNL     1     -25.240  14.663 -14.576  1.00  0.00    +0.048 A 
ENDROOT
BRANCH   4   7
ATOM      7  O   UNL     1     -26.392  16.673 -14.387  1.00  0.00    -0.491 OA
BRANCH   7   8
ATOM      8  C   UNL     1     -27.423  17.117 -15.274  1.00  0.00    +0.264 C 
BRANCH   8   9
ATOM      9  C   UNL     1     -27.968  15.902 -16.016  1.00  0.00    +0.185 C 
ATOM     10  C   UNL     1     -28.509  15.124 -18.097  1.00  0.00    +0.217 C 
ATOM     11  O   UNL     1     -27.517  15.878 -17.378  1.00  0.00    -0.335 OA
ATOM     12  O   UNL     1     -29.703  15.062 -17.282  1.00  0.00    -0.341 OA
ATOM     13  C   UNL     1     -29.465  15.926 -16.170  1.00  0.00    +0.200 C 
BRANCH  10  14
ATOM     14  C   UNL     1     -27.992  13.695 -18.332  1.00  0.00    +0.032 A 
ATOM     15  C   UNL     1     -28.767  12.678 -18.928  1.00  0.00    +0.051 A 
ATOM     16  C   UNL     1     -28.247  11.391 -19.120  1.00  0.00    +0.041 A 
ATOM     17  C   UNL     1     -26.683  13.353 -17.919  1.00  0.00    +0.012 A 
ATOM     18  C   UNL     1     -26.951  11.094 -18.715  1.00  0.00    +0.042 A 
ATOM     19  C   UNL     1     -26.168  12.069 -18.111  1.00  0.00    +0.021 A 
ATOM     20 Cl   UNL     1     -30.404  12.915 -19.439  1.00  0.00    -0.084 Cl
ATOM     21 Cl   UNL     1     -26.320   9.513 -18.952  1.00  0.00    -0.084 Cl
ENDBRANCH  10  14
BRANCH  10  22
ATOM     22  C   UNL     1     -28.838  15.790 -19.448  1.00  0.00    +0.217 C 
BRANCH  22  23
ATOM     23  N   UNL     1     -27.701  16.470 -20.031  1.00  0.00    -0.247 N 
ATOM     24  N   UNL     1     -27.712  17.801 -20.243  1.00  0.00    -0.160 NA
ATOM     25  C   UNL     1     -26.541  15.917 -20.483  1.00  0.00    +0.219 A 
ATOM     26  C   UNL     1     -26.514  17.988 -20.803  1.00  0.00    +0.246 A 
ATOM     27  N   UNL     1     -25.760  16.860 -20.955  1.00  0.00    -0.224 NA
ENDBRANCH  22  23
ENDBRANCH  10  22
ENDBRANCH   8   9
ENDBRANCH   7   8
ENDBRANCH   4   7
BRANCH   1  28
ATOM     28  N   UNL     1     -22.211  13.572 -16.451  1.00  0.00    -0.368 N 
ATOM     29  C   UNL     1     -22.224  12.105 -16.321  1.00  0.00    +0.138 C 
ATOM     30  C   UNL     1     -21.141  14.146 -17.286  1.00  0.00    +0.138 C 
ATOM     31  C   UNL     1     -20.802  11.503 -16.415  1.00  0.00    +0.138 C 
ATOM     32  C   UNL     1     -20.579  13.128 -18.309  1.00  0.00    +0.138 C 
ATOM     33  N   UNL     1     -20.112  11.891 -17.659  1.00  0.00    -0.368 N 
BRANCH  33  34
ATOM     34  C   UNL     1     -19.160  11.074 -18.242  1.00  0.00    +0.037 A 
ATOM     35  C   UNL     1     -18.238  10.350 -17.477  1.00  0.00    +0.028 A 
ATOM     36  C   UNL     1     -19.049  10.927 -19.629  1.00  0.00    +0.028 A 
ATOM     37  C   UNL     1     -17.262   9.522 -18.062  1.00  0.00    +0.029 A 
ATOM     38  C   UNL     1     -18.079  10.100 -20.221  1.00  0.00    +0.029 A 
ATOM     39  C   UNL     1     -17.164   9.380 -19.450  1.00  0.00    +0.052 A 
BRANCH  39  40
ATOM     40  N   UNL     1     -16.183   8.546 -20.040  1.00  0.00    -0.250 N 
ATOM     41  C   UNL     1     -14.846   8.832 -20.270  1.00  0.00    +0.350 C 
ATOM     42  C   UNL     1     -16.341   7.279 -20.483  1.00  0.00    +0.231 C 
ATOM     43  O   UNL     1     -14.204   9.837 -20.003  1.00  0.00    -0.246 OA
ATOM     44  N   UNL     1     -14.325   7.680 -20.885  1.00  0.00    -0.210 N 
ATOM     45  N   UNL     1     -15.288   6.709 -20.979  1.00  0.00    -0.158 NA
BRANCH  44  46
ATOM     46  C   UNL     1     -12.928   7.443 -21.214  1.00  0.00    +0.110 C 
ATOM     47  C   UNL     1     -12.796   6.312 -22.235  1.00  0.00    +0.033 C 
BRANCH  46  48
ATOM     48  C   UNL     1     -12.088   7.139 -19.960  1.00  0.00    +0.024 C 
ATOM     49  C   UNL     1     -12.359   5.757 -19.381  1.00  0.00    +0.006 C 
ENDBRANCH  46  48
ENDBRANCH  44  46
ENDBRANCH  39  40
ENDBRANCH  33  34
ENDBRANCH   1  28
TORSDOF 11
ENDMDL
MODEL 6
REMARK VINA RESULT:    -7.264      4.815     14.942
REMARK INTER + INTRA:         -13.289
REMARK INTER:                 -11.563
REMARK INTRA:                  -1.726
REMARK UNBOUND:                -1.353
REMARK SMILES CC[C@@H](C)n1ncn(-c2ccc(N3CCN(c4ccc(OC[C@H]5CO[C@](Cn6cncn6)(c6ccc(Cl)cc6Cl)O5)cc4)CC3)cc2)c1=O
REMARK SMILES IDX 17 1 18 2 43 3 20 4 19 5 42 6 21 7 22 8 23 9 26 10 41 11
REMARK SMILES IDX 25 12 24 13 33 14 39 15 38 16 34 17 36 18 35 19 40 20 37 21
REMARK SMILES IDX 27 22 28 23 32 24 29 25 31 26 30 27 16 28 15 29 44 30 14 31
REMARK SMILES IDX 45 32 13 33 12 34 11 35 46 36 10 37 47 38 9 39 8 40 48 41
REMARK SMILES IDX 7 42 49 43 5 44 6 45 3 46 4 47 2 48 1 49
REMARK H PARENT
ROOT
ATOM      1  C   UNL     1     -24.384  12.199 -13.999  1.00  0.00    +0.037 A 
ATOM      2  C   UNL     1     -22.994  12.188 -13.797  1.00  0.00    +0.030 A 
ATOM      3  C   UNL     1     -25.136  11.371 -13.154  1.00  0.00    +0.030 A 
ATOM      4  C   UNL     1     -23.158  10.595 -11.980  1.00  0.00    +0.119 A 
ATOM      5  C   UNL     1     -22.384  11.402 -12.806  1.00  0.00    +0.048 A 
ATOM      6  C   UNL     1     -24.536  10.585 -12.160  1.00  0.00    +0.048 A 
ENDROOT
BRANCH   4   7
ATOM      7  O   UNL     1     -22.700   9.785 -10.981  1.00  0.00    -0.491 OA
BRANCH   7   8
ATOM      8  C   UNL     1     -22.505   8.404 -11.299  1.00  0.00    +0.264 C 
BRANCH   8   9
ATOM      9  C   UNL     1     -21.566   8.320 -12.497  1.00  0.00    +0.185 C 
ATOM     10  C   UNL     1     -21.294   7.329 -14.539  1.00  0.00    +0.217 C 
ATOM     11  O   UNL     1     -22.274   7.952 -13.690  1.00  0.00    -0.335 OA
ATOM     12  O   UNL     1     -20.156   6.968 -13.723  1.00  0.00    -0.341 OA
ATOM     13  C   UNL     1     -20.545   7.221 -12.373  1.00  0.00    +0.200 C 
BRANCH  10  14
ATOM     14  C   UNL     1     -20.839   8.332 -15.612  1.00  0.00    +0.032 A 
ATOM     15  C   UNL     1     -21.725   9.194 -16.293  1.00  0.00    +0.051 A 
ATOM     16  C   UNL     1     -21.259  10.091 -17.263  1.00  0.00    +0.041 A 
ATOM     17  C   UNL     1     -19.472   8.398 -15.968  1.00  0.00    +0.012 A 
ATOM     18  C   UNL     1     -19.906  10.138 -17.577  1.00  0.00    +0.042 A 
ATOM     19  C   UNL     1     -19.010   9.293 -16.937  1.00  0.00    +0.021 A 
ATOM     20 Cl   UNL     1     -23.434   9.202 -16.016  1.00  0.00    -0.084 Cl
ATOM     21 Cl   UNL     1     -19.340  11.240 -18.769  1.00  0.00    -0.084 Cl
ENDBRANCH  10  14
BRANCH  10  22
ATOM     22  C   UNL     1     -21.869   6.067 -15.213  1.00  0.00    +0.217 C 
BRANCH  22  23
ATOM     23  N   UNL     1     -22.647   5.250 -14.307  1.00  0.00    -0.247 N 
ATOM     24  N   UNL     1     -22.071   4.289 -13.558  1.00  0.00    -0.160 NA
ATOM     25  C   UNL     1     -23.996   5.272 -14.114  1.00  0.00    +0.219 A 
ATOM     26  C   UNL     1     -23.129   3.786 -12.916  1.00  0.00    +0.246 A 
ATOM     27  N   UNL     1     -24.325   4.370 -13.218  1.00  0.00    -0.224 NA
ENDBRANCH  22  23
ENDBRANCH  10  22
ENDBRANCH   8   9
ENDBRANCH   7   8
ENDBRANCH   4   7
BRANCH   1  28
ATOM     28  N   UNL     1     -24.970  12.976 -14.984  1.00  0.00    -0.368 N 
ATOM     29  C   UNL     1     -24.642  14.402 -15.146  1.00  0.00    +0.138 C 
ATOM     30  C   UNL     1     -25.817  12.375 -16.030  1.00  0.00    +0.138 C 
ATOM     31  C   UNL     1     -25.765  15.173 -15.881  1.00  0.00    +0.138 C 
ATOM     32  C   UNL     1     -25.749  13.155 -17.365  1.00  0.00    +0.138 C 
ATOM     33  N   UNL     1     -26.086  14.579 -17.192  1.00  0.00    -0.368 N 
BRANCH  33  34
ATOM     34  C   UNL     1     -26.568  15.348 -18.235  1.00  0.00    +0.037 A 
ATOM     35  C   UNL     1     -25.714  15.944 -19.171  1.00  0.00    +0.028 A 
ATOM     36  C   UNL     1     -27.934  15.588 -18.418  1.00  0.00    +0.028 A 
ATOM     37  C   UNL     1     -26.196  16.733 -20.232  1.00  0.00    +0.029 A 
ATOM     38  C   UNL     1     -28.424  16.372 -19.477  1.00  0.00    +0.029 A 
ATOM     39  C   UNL     1     -27.564  16.962 -20.406  1.00  0.00    +0.052 A 
BRANCH  39  40
ATOM     40  N   UNL     1     -28.051  17.755 -21.475  1.00  0.00    -0.250 N 
ATOM     41  C   UNL     1     -28.600  19.025 -21.413  1.00  0.00    +0.350 C 
ATOM     42  C   UNL     1     -28.057  17.444 -22.791  1.00  0.00    +0.231 C 
ATOM     43  O   UNL     1     -28.770  19.758 -20.450  1.00  0.00    -0.246 OA
ATOM     44  N   UNL     1     -28.929  19.348 -22.741  1.00  0.00    -0.210 N 
ATOM     45  N   UNL     1     -28.548  18.340 -23.589  1.00  0.00    -0.158 NA
BRANCH  44  46
ATOM     46  C   UNL     1     -29.427  20.632 -23.212  1.00  0.00    +0.110 C 
ATOM     47  C   UNL     1     -30.881  20.838 -22.784  1.00  0.00    +0.033 C 
BRANCH  46  48
ATOM     48  C   UNL     1     -29.288  20.775 -24.738  1.00  0.00    +0.024 C 
ATOM     49  C   UNL     1     -30.589  20.515 -25.484  1.00  0.00    +0.006 C 
ENDBRANCH  46  48
ENDBRANCH  44  46
ENDBRANCH  39  40
ENDBRANCH  33  34
ENDBRANCH   1  28
TORSDOF 11
ENDMDL
MODEL 7
REMARK VINA RESULT:    -7.054      3.894      5.572
REMARK INTER + INTRA:         -12.943
REMARK INTER:                 -11.091
REMARK INTRA:                  -1.852
REMARK UNBOUND:                -1.353
REMARK SMILES CC[C@@H](C)n1ncn(-c2ccc(N3CCN(c4ccc(OC[C@H]5CO[C@](Cn6cncn6)(c6ccc(Cl)cc6Cl)O5)cc4)CC3)cc2)c1=O
REMARK SMILES IDX 17 1 18 2 43 3 20 4 19 5 42 6 21 7 22 8 23 9 26 10 41 11
REMARK SMILES IDX 25 12 24 13 33 14 39 15 38 16 34 17 36 18 35 19 40 20 37 21
REMARK SMILES IDX 27 22 28 23 32 24 29 25 31 26 30 27 16 28 15 29 44 30 14 31
REMARK SMILES IDX 45 32 13 33 12 34 11 35 46 36 10 37 47 38 9 39 8 40 48 41
REMARK SMILES IDX 7 42 49 43 5 44 6 45 3 46 4 47 2 48 1 49
REMARK H PARENT
ROOT
ATOM      1  C   UNL     1     -24.620   6.406 -15.535  1.00  0.00    +0.037 A 
ATOM      2  C   UNL     1     -24.487   7.207 -16.681  1.00  0.00    +0.030 A 
ATOM      3  C   UNL     1     -25.324   6.973 -14.464  1.00  0.00    +0.030 A 
ATOM      4  C   UNL     1     -25.728   9.033 -15.684  1.00  0.00    +0.119 A 
ATOM      5  C   UNL     1     -25.030   8.500 -16.761  1.00  0.00    +0.048 A 
ATOM      6  C   UNL     1     -25.872   8.261 -14.536  1.00  0.00    +0.048 A 
ENDROOT
BRANCH   4   7
ATOM      7  O   UNL     1     -26.306  10.268 -15.625  1.00  0.00    -0.491 OA
BRANCH   7   8
ATOM      8  C   UNL     1     -25.790  11.183 -14.653  1.00  0.00    +0.264 C 
BRANCH   8   9
ATOM      9  C   UNL     1     -24.322  11.439 -14.973  1.00  0.00    +0.185 C 
ATOM     10  C   UNL     1     -22.221  11.396 -14.071  1.00  0.00    +0.217 C 
ATOM     11  O   UNL     1     -23.461  10.667 -14.123  1.00  0.00    -0.335 OA
ATOM     12  O   UNL     1     -22.473  12.744 -14.529  1.00  0.00    -0.341 OA
ATOM     13  C   UNL     1     -23.889  12.850 -14.678  1.00  0.00    +0.200 C 
BRANCH  10  14
ATOM     14  C   UNL     1     -21.202  10.733 -15.013  1.00  0.00    +0.032 A 
ATOM     15  C   UNL     1     -21.043   9.335 -15.123  1.00  0.00    +0.051 A 
ATOM     16  C   UNL     1     -20.099   8.781 -15.997  1.00  0.00    +0.041 A 
ATOM     17  C   UNL     1     -20.355  11.544 -15.804  1.00  0.00    +0.012 A 
ATOM     18  C   UNL     1     -19.293   9.609 -16.770  1.00  0.00    +0.042 A 
ATOM     19  C   UNL     1     -19.414  10.989 -16.674  1.00  0.00    +0.021 A 
ATOM     20 Cl   UNL     1     -21.960   8.203 -14.187  1.00  0.00    -0.084 Cl
ATOM     21 Cl   UNL     1     -18.135   8.923 -17.839  1.00  0.00    -0.084 Cl
ENDBRANCH  10  14
BRANCH  10  22
ATOM     22  C   UNL     1     -21.660  11.431 -12.636  1.00  0.00    +0.217 C 
BRANCH  22  23
ATOM     23  N   UNL     1     -22.449  10.653 -11.704  1.00  0.00    -0.247 N 
ATOM     24  N   UNL     1     -23.606  11.124 -11.199  1.00  0.00    -0.160 NA
ATOM     25  C   UNL     1     -22.150   9.432 -11.177  1.00  0.00    +0.219 A 
ATOM     26  C   UNL     1     -23.967  10.123 -10.391  1.00  0.00    +0.246 A 
ATOM     27  N   UNL     1     -23.109   9.062 -10.360  1.00  0.00    -0.224 NA
ENDBRANCH  22  23
ENDBRANCH  10  22
ENDBRANCH   8   9
ENDBRANCH   7   8
ENDBRANCH   4   7
BRANCH   1  28
ATOM     28  N   UNL     1     -24.074   5.135 -15.470  1.00  0.00    -0.368 N 
ATOM     29  C   UNL     1     -23.704   4.385 -16.682  1.00  0.00    +0.138 C 
ATOM     30  C   UNL     1     -23.674   4.539 -14.182  1.00  0.00    +0.138 C 
ATOM     31  C   UNL     1     -23.658   2.859 -16.426  1.00  0.00    +0.138 C 
ATOM     32  C   UNL     1     -22.483   3.562 -14.329  1.00  0.00    +0.138 C 
ATOM     33  N   UNL     1     -22.752   2.505 -15.319  1.00  0.00    -0.368 N 
BRANCH  33  34
ATOM     34  C   UNL     1     -22.101   1.285 -15.279  1.00  0.00    +0.037 A 
ATOM     35  C   UNL     1     -21.551   0.702 -16.427  1.00  0.00    +0.028 A 
ATOM     36  C   UNL     1     -21.960   0.551 -14.096  1.00  0.00    +0.028 A 
ATOM     37  C   UNL     1     -20.893  -0.542 -16.397  1.00  0.00    +0.029 A 
ATOM     38  C   UNL     1     -21.302  -0.691 -14.057  1.00  0.00    +0.029 A 
ATOM     39  C   UNL     1     -20.755  -1.264 -15.207  1.00  0.00    +0.052 A 
BRANCH  39  40
ATOM     40  N   UNL     1     -20.092  -2.515 -15.175  1.00  0.00    -0.250 N 
ATOM     41  C   UNL     1     -18.751  -2.776 -15.406  1.00  0.00    +0.350 C 
ATOM     42  C   UNL     1     -20.629  -3.722 -14.886  1.00  0.00    +0.231 C 
ATOM     43  O   UNL     1     -17.837  -2.006 -15.662  1.00  0.00    -0.246 OA
ATOM     44  N   UNL     1     -18.618  -4.169 -15.265  1.00  0.00    -0.210 N 
ATOM     45  N   UNL     1     -19.816  -4.731 -14.909  1.00  0.00    -0.158 NA
BRANCH  44  46
ATOM     46  C   UNL     1     -17.370  -4.917 -15.296  1.00  0.00    +0.110 C 
ATOM     47  C   UNL     1     -17.289  -5.782 -16.555  1.00  0.00    +0.033 C 
BRANCH  46  48
ATOM     48  C   UNL     1     -17.189  -5.780 -14.035  1.00  0.00    +0.024 C 
ATOM     49  C   UNL     1     -16.454  -5.056 -12.915  1.00  0.00    +0.006 C 
ENDBRANCH  46  48
ENDBRANCH  44  46
ENDBRANCH  39  40
ENDBRANCH  33  34
ENDBRANCH   1  28
TORSDOF 11
ENDMDL
MODEL 8
REMARK VINA RESULT:    -6.861      4.984     16.060
REMARK INTER + INTRA:         -12.625
REMARK INTER:                 -11.507
REMARK INTRA:                  -1.118
REMARK UNBOUND:                -1.353
REMARK SMILES CC[C@@H](C)n1ncn(-c2ccc(N3CCN(c4ccc(OC[C@H]5CO[C@](Cn6cncn6)(c6ccc(Cl)cc6Cl)O5)cc4)CC3)cc2)c1=O
REMARK SMILES IDX 17 1 18 2 43 3 20 4 19 5 42 6 21 7 22 8 23 9 26 10 41 11
REMARK SMILES IDX 25 12 24 13 33 14 39 15 38 16 34 17 36 18 35 19 40 20 37 21
REMARK SMILES IDX 27 22 28 23 32 24 29 25 31 26 30 27 16 28 15 29 44 30 14 31
REMARK SMILES IDX 45 32 13 33 12 34 11 35 46 36 10 37 47 38 9 39 8 40 48 41
REMARK SMILES IDX 7 42 49 43 5 44 6 45 3 46 4 47 2 48 1 49
REMARK H PARENT
ROOT
ATOM      1  C   UNL     1     -22.399   2.932 -13.968  1.00  0.00    +0.037 A 
ATOM      2  C   UNL     1     -22.752   1.998 -12.980  1.00  0.00    +0.030 A 
ATOM      3  C   UNL     1     -21.632   2.443 -15.035  1.00  0.00    +0.030 A 
ATOM      4  C   UNL     1     -21.611   0.193 -14.124  1.00  0.00    +0.119 A 
ATOM      5  C   UNL     1     -22.368   0.649 -13.050  1.00  0.00    +0.048 A 
ATOM      6  C   UNL     1     -21.247   1.098 -15.114  1.00  0.00    +0.048 A 
ENDROOT
BRANCH   4   7
ATOM      7  O   UNL     1     -21.172  -1.085 -14.319  1.00  0.00    -0.491 OA
BRANCH   7   8
ATOM      8  C   UNL     1     -20.775  -1.442 -15.647  1.00  0.00    +0.264 C 
BRANCH   8   9
ATOM      9  C   UNL     1     -19.321  -1.897 -15.603  1.00  0.00    +0.185 C 
ATOM     10  C   UNL     1     -17.627  -2.730 -16.893  1.00  0.00    +0.217 C 
ATOM     11  O   UNL     1     -18.694  -1.764 -16.887  1.00  0.00    -0.335 OA
ATOM     12  O   UNL     1     -17.873  -3.678 -15.829  1.00  0.00    -0.341 OA
ATOM     13  C   UNL     1     -19.170  -3.367 -15.318  1.00  0.00    +0.200 C 
BRANCH  10  14
ATOM     14  C   UNL     1     -16.292  -2.016 -16.626  1.00  0.00    +0.032 A 
ATOM     15  C   UNL     1     -15.073  -2.699 -16.429  1.00  0.00    +0.051 A 
ATOM     16  C   UNL     1     -13.883  -2.000 -16.189  1.00  0.00    +0.041 A 
ATOM     17  C   UNL     1     -16.262  -0.604 -16.547  1.00  0.00    +0.012 A 
ATOM     18  C   UNL     1     -13.889  -0.611 -16.132  1.00  0.00    +0.042 A 
ATOM     19  C   UNL     1     -15.074   0.090 -16.306  1.00  0.00    +0.021 A 
ATOM     20 Cl   UNL     1     -14.945  -4.425 -16.439  1.00  0.00    -0.084 Cl
ATOM     21 Cl   UNL     1     -12.426   0.241 -15.835  1.00  0.00    -0.084 Cl
ENDBRANCH  10  14
BRANCH  10  22
ATOM     22  C   UNL     1     -17.562  -3.472 -18.243  1.00  0.00    +0.217 C 
BRANCH  22  23
ATOM     23  N   UNL     1     -18.275  -2.784 -19.298  1.00  0.00    -0.247 N 
ATOM     24  N   UNL     1     -17.837  -1.609 -19.792  1.00  0.00    -0.160 NA
ATOM     25  C   UNL     1     -19.449  -3.149 -19.885  1.00  0.00    +0.219 A 
ATOM     26  C   UNL     1     -18.782  -1.333 -20.694  1.00  0.00    +0.246 A 
ATOM     27  N   UNL     1     -19.781  -2.259 -20.792  1.00  0.00    -0.224 NA
ENDBRANCH  22  23
ENDBRANCH  10  22
ENDBRANCH   8   9
ENDBRANCH   7   8
ENDBRANCH   4   7
BRANCH   1  28
ATOM     28  N   UNL     1     -22.782   4.260 -13.882  1.00  0.00    -0.368 N 
ATOM     29  C   UNL     1     -21.894   5.354 -14.309  1.00  0.00    +0.138 C 
ATOM     30  C   UNL     1     -24.162   4.637 -13.524  1.00  0.00    +0.138 C 
ATOM     31  C   UNL     1     -22.262   6.696 -13.630  1.00  0.00    +0.138 C 
ATOM     32  C   UNL     1     -24.597   5.971 -14.177  1.00  0.00    +0.138 C 
ATOM     33  N   UNL     1     -23.669   7.071 -13.861  1.00  0.00    -0.368 N 
BRANCH  33  34
ATOM     34  C   UNL     1     -24.068   8.395 -13.893  1.00  0.00    +0.037 A 
ATOM     35  C   UNL     1     -23.156   9.438 -14.091  1.00  0.00    +0.028 A 
ATOM     36  C   UNL     1     -25.403   8.778 -13.721  1.00  0.00    +0.028 A 
ATOM     37  C   UNL     1     -23.552  10.788 -14.119  1.00  0.00    +0.029 A 
ATOM     38  C   UNL     1     -25.808  10.124 -13.750  1.00  0.00    +0.029 A 
ATOM     39  C   UNL     1     -24.890  11.158 -13.948  1.00  0.00    +0.052 A 
BRANCH  39  40
ATOM     40  N   UNL     1     -25.290  12.517 -13.978  1.00  0.00    -0.250 N 
ATOM     41  C   UNL     1     -25.165  13.421 -15.020  1.00  0.00    +0.350 C 
ATOM     42  C   UNL     1     -25.906  13.213 -12.995  1.00  0.00    +0.231 C 
ATOM     43  O   UNL     1     -24.714  13.261 -16.144  1.00  0.00    -0.246 OA
ATOM     44  N   UNL     1     -25.702  14.624 -14.530  1.00  0.00    -0.210 N 
ATOM     45  N   UNL     1     -26.186  14.450 -13.259  1.00  0.00    -0.158 NA
BRANCH  44  46
ATOM     46  C   UNL     1     -25.908  15.844 -15.295  1.00  0.00    +0.110 C 
ATOM     47  C   UNL     1     -24.679  16.751 -15.207  1.00  0.00    +0.033 C 
BRANCH  46  48
ATOM     48  C   UNL     1     -27.169  16.599 -14.841  1.00  0.00    +0.024 C 
ATOM     49  C   UNL     1     -28.398  16.267 -15.677  1.00  0.00    +0.006 C 
ENDBRANCH  46  48
ENDBRANCH  44  46
ENDBRANCH  39  40
ENDBRANCH  33  34
ENDBRANCH   1  28
TORSDOF 11
ENDMDL
MODEL 9
REMARK VINA RESULT:    -6.824      7.359      8.543
REMARK INTER + INTRA:         -12.565
REMARK INTER:                 -10.739
REMARK INTRA:                  -1.826
REMARK UNBOUND:                -1.353
REMARK SMILES CC[C@@H](C)n1ncn(-c2ccc(N3CCN(c4ccc(OC[C@H]5CO[C@](Cn6cncn6)(c6ccc(Cl)cc6Cl)O5)cc4)CC3)cc2)c1=O
REMARK SMILES IDX 17 1 18 2 43 3 20 4 19 5 42 6 21 7 22 8 23 9 26 10 41 11
REMARK SMILES IDX 25 12 24 13 33 14 39 15 38 16 34 17 36 18 35 19 40 20 37 21
REMARK SMILES IDX 27 22 28 23 32 24 29 25 31 26 30 27 16 28 15 29 44 30 14 31
REMARK SMILES IDX 45 32 13 33 12 34 11 35 46 36 10 37 47 38 9 39 8 40 48 41
REMARK SMILES IDX 7 42 49 43 5 44 6 45 3 46 4 47 2 48 1 49
REMARK H PARENT
ROOT
ATOM      1  C   UNL     1     -23.300  13.969 -15.974  1.00  0.00    +0.037 A 
ATOM      2  C   UNL     1     -23.500  15.339 -16.213  1.00  0.00    +0.030 A 
ATOM      3  C   UNL     1     -24.247  13.341 -15.152  1.00  0.00    +0.030 A 
ATOM      4  C   UNL     1     -25.511  15.394 -14.864  1.00  0.00    +0.119 A 
ATOM      5  C   UNL     1     -24.586  16.046 -15.671  1.00  0.00    +0.048 A 
ATOM      6  C   UNL     1     -25.335  14.038 -14.609  1.00  0.00    +0.048 A 
ENDROOT
BRANCH   4   7
ATOM      7  O   UNL     1     -26.608  15.953 -14.275  1.00  0.00    -0.491 OA
BRANCH   7   8
ATOM      8  C   UNL     1     -27.457  16.755 -15.103  1.00  0.00    +0.264 C 
BRANCH   8   9
ATOM      9  C   UNL     1     -28.161  15.834 -16.093  1.00  0.00    +0.185 C 
ATOM     10  C   UNL     1     -28.572  15.518 -18.320  1.00  0.00    +0.217 C 
ATOM     11  O   UNL     1     -27.542  15.888 -17.387  1.00  0.00    -0.335 OA
ATOM     12  O   UNL     1     -29.849  15.646 -17.653  1.00  0.00    -0.341 OA
ATOM     13  C   UNL     1     -29.574  16.257 -16.392  1.00  0.00    +0.200 C 
BRANCH  10  14
ATOM     14  C   UNL     1     -28.375  14.053 -18.742  1.00  0.00    +0.032 A 
ATOM     15  C   UNL     1     -27.117  13.500 -19.061  1.00  0.00    +0.051 A 
ATOM     16  C   UNL     1     -26.992  12.157 -19.439  1.00  0.00    +0.041 A 
ATOM     17  C   UNL     1     -29.500  13.201 -18.843  1.00  0.00    +0.012 A 
ATOM     18  C   UNL     1     -28.118  11.345 -19.515  1.00  0.00    +0.042 A 
ATOM     19  C   UNL     1     -29.372  11.862 -19.222  1.00  0.00    +0.021 A 
ATOM     20 Cl   UNL     1     -25.650  14.418 -19.041  1.00  0.00    -0.084 Cl
ATOM     21 Cl   UNL     1     -27.958   9.698 -19.982  1.00  0.00    -0.084 Cl
ENDBRANCH  10  14
BRANCH  10  22
ATOM     22  C   UNL     1     -28.544  16.428 -19.564  1.00  0.00    +0.217 C 
BRANCH  22  23
ATOM     23  N   UNL     1     -29.856  16.912 -19.937  1.00  0.00    -0.247 N 
ATOM     24  N   UNL     1     -30.287  18.133 -19.563  1.00  0.00    -0.160 NA
ATOM     25  C   UNL     1     -30.825  16.246 -20.626  1.00  0.00    +0.219 A 
ATOM     26  C   UNL     1     -31.517  18.149 -20.083  1.00  0.00    +0.246 A 
ATOM     27  N   UNL     1     -31.880  17.017 -20.754  1.00  0.00    -0.224 NA
ENDBRANCH  22  23
ENDBRANCH  10  22
ENDBRANCH   8   9
ENDBRANCH   7   8
ENDBRANCH   4   7
BRANCH   1  28
ATOM     28  N   UNL     1     -22.222  13.288 -16.512  1.00  0.00    -0.368 N 
ATOM     29  C   UNL     1     -21.645  12.102 -15.857  1.00  0.00    +0.138 C 
ATOM     30  C   UNL     1     -21.708  13.609 -17.857  1.00  0.00    +0.138 C 
ATOM     31  C   UNL     1     -20.180  11.857 -16.290  1.00  0.00    +0.138 C 
ATOM     32  C   UNL     1     -21.095  12.376 -18.563  1.00  0.00    +0.138 C 
ATOM     33  N   UNL     1     -20.042  11.739 -17.753  1.00  0.00    -0.368 N 
BRANCH  33  34
ATOM     34  C   UNL     1     -19.042  10.974 -18.326  1.00  0.00    +0.037 A 
ATOM     35  C   UNL     1     -18.927  10.823 -19.712  1.00  0.00    +0.028 A 
ATOM     36  C   UNL     1     -18.088  10.296 -17.559  1.00  0.00    +0.028 A 
ATOM     37  C   UNL     1     -17.917  10.042 -20.303  1.00  0.00    +0.029 A 
ATOM     38  C   UNL     1     -17.073   9.516 -18.140  1.00  0.00    +0.029 A 
ATOM     39  C   UNL     1     -16.967   9.371 -19.525  1.00  0.00    +0.052 A 
BRANCH  39  40
ATOM     40  N   UNL     1     -15.948   8.586 -20.118  1.00  0.00    -0.250 N 
ATOM     41  C   UNL     1     -15.842   7.204 -20.144  1.00  0.00    +0.350 C 
ATOM     42  C   UNL     1     -14.871   9.023 -20.809  1.00  0.00    +0.231 C 
ATOM     43  O   UNL     1     -16.596   6.354 -19.694  1.00  0.00    -0.246 OA
ATOM     44  N   UNL     1     -14.650   6.940 -20.840  1.00  0.00    -0.210 N 
ATOM     45  N   UNL     1     -14.077   8.109 -21.270  1.00  0.00    -0.158 NA
BRANCH  44  46
ATOM     46  C   UNL     1     -14.161   5.627 -21.233  1.00  0.00    +0.110 C 
ATOM     47  C   UNL     1     -12.859   5.294 -20.503  1.00  0.00    +0.033 C 
BRANCH  46  48
ATOM     48  C   UNL     1     -13.968   5.521 -22.756  1.00  0.00    +0.024 C 
ATOM     49  C   UNL     1     -15.282   5.523 -23.526  1.00  0.00    +0.006 C 
ENDBRANCH  46  48
ENDBRANCH  44  46
ENDBRANCH  39  40
ENDBRANCH  33  34
ENDBRANCH   1  28
TORSDOF 11
ENDMDL
