MODEL 1
REMARK VINA RESULT:    -5.653      0.000      0.000
REMARK INTER + INTRA:          -9.403
REMARK INTER:                  -9.289
REMARK INTRA:                  -0.114
REMARK UNBOUND:                -0.114
REMARK SMILES CC[C@@H](C)n1ncn(-c2ccc(N3CCN(c4ccc(OC[C@H]5CO[C@](Cn6cncn6)(c6ccc(Cl)cc6Cl)O5)cc4)CC3)cc2)c1=O
REMARK SMILES IDX 17 1 18 2 43 3 20 4 19 5 42 6 21 7 22 8 23 9 26 10 41 11
REMARK SMILES IDX 25 12 24 13 33 14 39 15 38 16 34 17 36 18 35 19 40 20 37 21
REMARK SMILES IDX 27 22 28 23 32 24 29 25 31 26 30 27 16 28 15 29 44 30 14 31
REMARK SMILES IDX 45 32 13 33 12 34 11 35 46 36 10 37 47 38 9 39 8 40 48 41
REMARK SMILES IDX 7 42 49 43 5 44 6 45 3 46 4 47 2 48 1 49
REMARK H PARENT
ROOT
ATOM      1  C   UNL     1      14.315  67.859  46.554  1.00  0.00    +0.037 A 
ATOM      2  C   UNL     1      15.224  68.466  47.436  1.00  0.00    +0.030 A 
ATOM      3  C   UNL     1      13.010  67.684  47.037  1.00  0.00    +0.030 A 
ATOM      4  C   UNL     1      13.554  68.700  49.174  1.00  0.00    +0.119 A 
ATOM      5  C   UNL     1      14.857  68.882  48.725  1.00  0.00    +0.048 A 
ATOM      6  C   UNL     1      12.633  68.099  48.322  1.00  0.00    +0.048 A 
ENDROOT
BRANCH   4   7
ATOM      7  O   UNL     1      13.060  69.055  50.396  1.00  0.00    -0.491 OA
BRANCH   7   8
ATOM      8  C   UNL     1      11.695  69.479  50.451  1.00  0.00    +0.264 C 
BRANCH   8   9
ATOM      9  C   UNL     1      11.603  70.868  49.831  1.00  0.00    +0.185 C 
ATOM     10  C   UNL     1      10.152  72.579  49.388  1.00  0.00    +0.217 C 
ATOM     11  O   UNL     1      10.520  71.621  50.397  1.00  0.00    -0.335 OA
ATOM     12  O   UNL     1      10.710  72.141  48.127  1.00  0.00    -0.341 OA
ATOM     13  C   UNL     1      11.250  70.841  48.368  1.00  0.00    +0.200 C 
BRANCH  10  14
ATOM     14  C   UNL     1      10.749  73.950  49.747  1.00  0.00    +0.032 A 
ATOM     15  C   UNL     1      10.655  75.081  48.907  1.00  0.00    +0.051 A 
ATOM     16  C   UNL     1      11.217  76.308  49.281  1.00  0.00    +0.041 A 
ATOM     17  C   UNL     1      11.451  74.106  50.965  1.00  0.00    +0.012 A 
ATOM     18  C   UNL     1      11.888  76.428  50.493  1.00  0.00    +0.042 A 
ATOM     19  C   UNL     1      12.010  75.332  51.335  1.00  0.00    +0.021 A 
ATOM     20 Cl   UNL     1       9.880  75.046  47.360  1.00  0.00    -0.084 Cl
ATOM     21 Cl   UNL     1      12.576  77.937  50.946  1.00  0.00    -0.084 Cl
ENDBRANCH  10  14
BRANCH  10  22
ATOM     22  C   UNL     1       8.620  72.692  49.266  1.00  0.00    +0.217 C 
BRANCH  22  23
ATOM     23  N   UNL     1       8.023  71.553  48.601  1.00  0.00    -0.247 N 
ATOM     24  N   UNL     1       7.681  70.442  49.283  1.00  0.00    -0.160 NA
ATOM     25  C   UNL     1       7.778  71.399  47.270  1.00  0.00    +0.219 A 
ATOM     26  C   UNL     1       7.211  69.666  48.303  1.00  0.00    +0.246 A 
ATOM     27  N   UNL     1       7.240  70.221  47.057  1.00  0.00    -0.224 NA
ENDBRANCH  22  23
ENDBRANCH  10  22
ENDBRANCH   8   9
ENDBRANCH   7   8
ENDBRANCH   4   7
BRANCH   1  28
ATOM     28  N   UNL     1      14.694  67.450  45.287  1.00  0.00    -0.368 N 
ATOM     29  C   UNL     1      13.790  67.561  44.130  1.00  0.00    +0.138 C 
ATOM     30  C   UNL     1      16.082  67.046  44.997  1.00  0.00    +0.138 C 
ATOM     31  C   UNL     1      14.172  66.576  43.000  1.00  0.00    +0.138 C 
ATOM     32  C   UNL     1      16.493  67.351  43.536  1.00  0.00    +0.138 C 
ATOM     33  N   UNL     1      15.570  66.742  42.562  1.00  0.00    -0.368 N 
BRANCH  33  34
ATOM     34  C   UNL     1      15.963  66.448  41.269  1.00  0.00    +0.037 A 
ATOM     35  C   UNL     1      17.195  66.869  40.756  1.00  0.00    +0.028 A 
ATOM     36  C   UNL     1      15.153  65.722  40.389  1.00  0.00    +0.028 A 
ATOM     37  C   UNL     1      17.600  66.580  39.440  1.00  0.00    +0.029 A 
ATOM     38  C   UNL     1      15.550  65.427  39.073  1.00  0.00    +0.029 A 
ATOM     39  C   UNL     1      16.782  65.851  38.570  1.00  0.00    +0.052 A 
BRANCH  39  40
ATOM     40  N   UNL     1      17.189  65.558  37.245  1.00  0.00    -0.250 N 
ATOM     41  C   UNL     1      16.817  64.480  36.458  1.00  0.00    +0.350 C 
ATOM     42  C   UNL     1      18.011  66.288  36.458  1.00  0.00    +0.231 C 
ATOM     43  O   UNL     1      16.050  63.561  36.702  1.00  0.00    -0.246 OA
ATOM     44  N   UNL     1      17.507  64.656  35.245  1.00  0.00    -0.210 N 
ATOM     45  N   UNL     1      18.229  65.821  35.269  1.00  0.00    -0.158 NA
BRANCH  44  46
ATOM     46  C   UNL     1      17.354  63.844  34.048  1.00  0.00    +0.110 C 
ATOM     47  C   UNL     1      18.332  62.667  34.063  1.00  0.00    +0.033 C 
BRANCH  46  48
ATOM     48  C   UNL     1      17.531  64.675  32.766  1.00  0.00    +0.024 C 
ATOM     49  C   UNL     1      18.302  63.940  31.678  1.00  0.00    +0.006 C 
ENDBRANCH  46  48
ENDBRANCH  44  46
ENDBRANCH  39  40
ENDBRANCH  33  34
ENDBRANCH   1  28
TORSDOF 11
ENDMDL
MODEL 2
REMARK VINA RESULT:    -5.244      6.673     13.768
REMARK INTER + INTRA:          -8.730
REMARK INTER:                  -8.527
REMARK INTRA:                  -0.203
REMARK UNBOUND:                -0.114
REMARK SMILES CC[C@@H](C)n1ncn(-c2ccc(N3CCN(c4ccc(OC[C@H]5CO[C@](Cn6cncn6)(c6ccc(Cl)cc6Cl)O5)cc4)CC3)cc2)c1=O
REMARK SMILES IDX 17 1 18 2 43 3 20 4 19 5 42 6 21 7 22 8 23 9 26 10 41 11
REMARK SMILES IDX 25 12 24 13 33 14 39 15 38 16 34 17 36 18 35 19 40 20 37 21
REMARK SMILES IDX 27 22 28 23 32 24 29 25 31 26 30 27 16 28 15 29 44 30 14 31
REMARK SMILES IDX 45 32 13 33 12 34 11 35 46 36 10 37 47 38 9 39 8 40 48 41
REMARK SMILES IDX 7 42 49 43 5 44 6 45 3 46 4 47 2 48 1 49
REMARK H PARENT
ROOT
ATOM      1  C   UNL     1      18.762  67.058  45.539  1.00  0.00    +0.037 A 
ATOM      2  C   UNL     1      18.022  66.006  46.105  1.00  0.00    +0.030 A 
ATOM      3  C   UNL     1      19.264  66.836  44.249  1.00  0.00    +0.030 A 
ATOM      4  C   UNL     1      18.293  64.613  44.142  1.00  0.00    +0.119 A 
ATOM      5  C   UNL     1      17.787  64.802  45.423  1.00  0.00    +0.048 A 
ATOM      6  C   UNL     1      19.032  65.637  43.560  1.00  0.00    +0.048 A 
ENDROOT
BRANCH   4   7
ATOM      7  O   UNL     1      18.142  63.499  43.367  1.00  0.00    -0.491 OA
BRANCH   7   8
ATOM      8  C   UNL     1      16.807  63.135  43.001  1.00  0.00    +0.264 C 
BRANCH   8   9
ATOM      9  C   UNL     1      16.434  63.906  41.739  1.00  0.00    +0.185 C 
ATOM     10  C   UNL     1      15.264  65.720  40.986  1.00  0.00    +0.217 C 
ATOM     11  O   UNL     1      16.146  65.281  42.035  1.00  0.00    -0.335 OA
ATOM     12  O   UNL     1      14.721  64.548  40.335  1.00  0.00    -0.341 OA
ATOM     13  C   UNL     1      15.149  63.432  41.115  1.00  0.00    +0.200 C 
BRANCH  10  14
ATOM     14  C   UNL     1      16.063  66.537  39.958  1.00  0.00    +0.032 A 
ATOM     15  C   UNL     1      15.625  66.759  38.635  1.00  0.00    +0.051 A 
ATOM     16  C   UNL     1      16.392  67.512  37.736  1.00  0.00    +0.041 A 
ATOM     17  C   UNL     1      17.314  67.085  40.325  1.00  0.00    +0.012 A 
ATOM     18  C   UNL     1      17.611  68.048  38.137  1.00  0.00    +0.042 A 
ATOM     19  C   UNL     1      18.077  67.835  39.427  1.00  0.00    +0.021 A 
ATOM     20 Cl   UNL     1      14.147  66.113  38.008  1.00  0.00    -0.084 Cl
ATOM     21 Cl   UNL     1      18.548  68.969  37.029  1.00  0.00    -0.084 Cl
ENDBRANCH  10  14
BRANCH  10  22
ATOM     22  C   UNL     1      14.114  66.577  41.554  1.00  0.00    +0.217 C 
BRANCH  22  23
ATOM     23  N   UNL     1      14.308  66.927  42.945  1.00  0.00    -0.247 N 
ATOM     24  N   UNL     1      13.267  67.031  43.794  1.00  0.00    -0.160 NA
ATOM     25  C   UNL     1      15.477  67.242  43.570  1.00  0.00    +0.219 A 
ATOM     26  C   UNL     1      13.883  67.388  44.924  1.00  0.00    +0.246 A 
ATOM     27  N   UNL     1      15.240  67.515  44.832  1.00  0.00    -0.224 NA
ENDBRANCH  22  23
ENDBRANCH  10  22
ENDBRANCH   8   9
ENDBRANCH   7   8
ENDBRANCH   4   7
BRANCH   1  28
ATOM     28  N   UNL     1      18.989  68.238  46.227  1.00  0.00    -0.368 N 
ATOM     29  C   UNL     1      19.851  69.301  45.683  1.00  0.00    +0.138 C 
ATOM     30  C   UNL     1      18.240  68.565  47.454  1.00  0.00    +0.138 C 
ATOM     31  C   UNL     1      20.400  70.226  46.796  1.00  0.00    +0.138 C 
ATOM     32  C   UNL     1      18.045  70.089  47.638  1.00  0.00    +0.138 C 
ATOM     33  N   UNL     1      19.325  70.819  47.612  1.00  0.00    -0.368 N 
BRANCH  33  34
ATOM     34  C   UNL     1      19.477  72.050  48.223  1.00  0.00    +0.037 A 
ATOM     35  C   UNL     1      18.816  73.193  47.757  1.00  0.00    +0.028 A 
ATOM     36  C   UNL     1      20.303  72.236  49.336  1.00  0.00    +0.028 A 
ATOM     37  C   UNL     1      18.970  74.451  48.368  1.00  0.00    +0.029 A 
ATOM     38  C   UNL     1      20.460  73.489  49.955  1.00  0.00    +0.029 A 
ATOM     39  C   UNL     1      19.797  74.624  49.482  1.00  0.00    +0.052 A 
BRANCH  39  40
ATOM     40  N   UNL     1      19.951  75.890  50.099  1.00  0.00    -0.250 N 
ATOM     41  C   UNL     1      19.612  76.255  51.392  1.00  0.00    +0.350 C 
ATOM     42  C   UNL     1      20.487  77.007  49.559  1.00  0.00    +0.231 C 
ATOM     43  O   UNL     1      19.134  75.584  52.295  1.00  0.00    -0.246 OA
ATOM     44  N   UNL     1      19.956  77.615  51.492  1.00  0.00    -0.210 N 
ATOM     45  N   UNL     1      20.532  78.050  50.326  1.00  0.00    -0.158 NA
BRANCH  44  46
ATOM     46  C   UNL     1      19.902  78.425  52.699  1.00  0.00    +0.110 C 
ATOM     47  C   UNL     1      19.844  77.538  53.944  1.00  0.00    +0.033 C 
BRANCH  46  48
ATOM     48  C   UNL     1      18.715  79.404  52.679  1.00  0.00    +0.024 C 
ATOM     49  C   UNL     1      17.873  79.350  53.946  1.00  0.00    +0.006 C 
ENDBRANCH  46  48
ENDBRANCH  44  46
ENDBRANCH  39  40
ENDBRANCH  33  34
ENDBRANCH   1  28
TORSDOF 11
ENDMDL
MODEL 3
REMARK VINA RESULT:    -4.987      7.386     13.700
REMARK INTER + INTRA:          -8.308
REMARK INTER:                 -10.506
REMARK INTRA:                   2.198
REMARK UNBOUND:                -0.114
REMARK SMILES CC[C@@H](C)n1ncn(-c2ccc(N3CCN(c4ccc(OC[C@H]5CO[C@](Cn6cncn6)(c6ccc(Cl)cc6Cl)O5)cc4)CC3)cc2)c1=O
REMARK SMILES IDX 17 1 18 2 43 3 20 4 19 5 42 6 21 7 22 8 23 9 26 10 41 11
REMARK SMILES IDX 25 12 24 13 33 14 39 15 38 16 34 17 36 18 35 19 40 20 37 21
REMARK SMILES IDX 27 22 28 23 32 24 29 25 31 26 30 27 16 28 15 29 44 30 14 31
REMARK SMILES IDX 45 32 13 33 12 34 11 35 46 36 10 37 47 38 9 39 8 40 48 41
REMARK SMILES IDX 7 42 49 43 5 44 6 45 3 46 4 47 2 48 1 49
REMARK H PARENT
ROOT
ATOM      1  C   UNL     1      16.004  67.950  45.246  1.00  0.00    +0.037 A 
ATOM      2  C   UNL     1      14.692  68.382  44.993  1.00  0.00    +0.030 A 
ATOM      3  C   UNL     1      16.311  66.641  44.846  1.00  0.00    +0.030 A 
ATOM      4  C   UNL     1      14.073  66.270  43.980  1.00  0.00    +0.119 A 
ATOM      5  C   UNL     1      13.737  67.562  44.370  1.00  0.00    +0.048 A 
ATOM      6  C   UNL     1      15.365  65.816  44.222  1.00  0.00    +0.048 A 
ENDROOT
BRANCH   4   7
ATOM      7  O   UNL     1      13.250  65.369  43.368  1.00  0.00    -0.491 OA
BRANCH   7   8
ATOM      8  C   UNL     1      13.863  64.416  42.493  1.00  0.00    +0.264 C 
BRANCH   8   9
ATOM      9  C   UNL     1      14.204  65.122  41.185  1.00  0.00    +0.185 C 
ATOM     10  C   UNL     1      15.745  66.492  40.197  1.00  0.00    +0.217 C 
ATOM     11  O   UNL     1      15.615  65.358  41.074  1.00  0.00    -0.335 OA
ATOM     12  O   UNL     1      14.461  67.155  40.127  1.00  0.00    -0.341 OA
ATOM     13  C   UNL     1      13.634  66.512  41.098  1.00  0.00    +0.200 C 
BRANCH  10  14
ATOM     14  C   UNL     1      16.132  66.006  38.791  1.00  0.00    +0.032 A 
ATOM     15  C   UNL     1      16.999  66.718  37.935  1.00  0.00    +0.051 A 
ATOM     16  C   UNL     1      17.320  66.231  36.661  1.00  0.00    +0.041 A 
ATOM     17  C   UNL     1      15.588  64.797  38.298  1.00  0.00    +0.012 A 
ATOM     18  C   UNL     1      16.777  65.031  36.216  1.00  0.00    +0.042 A 
ATOM     19  C   UNL     1      15.909  64.313  37.027  1.00  0.00    +0.021 A 
ATOM     20 Cl   UNL     1      17.706  68.240  38.361  1.00  0.00    -0.084 Cl
ATOM     21 Cl   UNL     1      17.173  64.439  34.651  1.00  0.00    -0.084 Cl
ENDBRANCH  10  14
BRANCH  10  22
ATOM     22  C   UNL     1      16.809  67.476  40.721  1.00  0.00    +0.217 C 
BRANCH  22  23
ATOM     23  N   UNL     1      17.754  66.855  41.625  1.00  0.00    -0.247 N 
ATOM     24  N   UNL     1      18.672  67.583  42.290  1.00  0.00    -0.160 NA
ATOM     25  C   UNL     1      17.902  65.527  41.891  1.00  0.00    +0.219 A 
ATOM     26  C   UNL     1      19.326  66.632  42.962  1.00  0.00    +0.246 A 
ATOM     27  N   UNL     1      18.876  65.359  42.755  1.00  0.00    -0.224 NA
ENDBRANCH  22  23
ENDBRANCH  10  22
ENDBRANCH   8   9
ENDBRANCH   7   8
ENDBRANCH   4   7
BRANCH   1  28
ATOM     28  N   UNL     1      16.932  68.769  45.865  1.00  0.00    -0.368 N 
ATOM     29  C   UNL     1      18.343  68.801  45.446  1.00  0.00    +0.138 C 
ATOM     30  C   UNL     1      16.520  69.780  46.857  1.00  0.00    +0.138 C 
ATOM     31  C   UNL     1      19.270  69.317  46.574  1.00  0.00    +0.138 C 
ATOM     32  C   UNL     1      17.452  71.015  46.863  1.00  0.00    +0.138 C 
ATOM     33  N   UNL     1      18.863  70.644  47.069  1.00  0.00    -0.368 N 
BRANCH  33  34
ATOM     34  C   UNL     1      19.783  71.534  47.592  1.00  0.00    +0.037 A 
ATOM     35  C   UNL     1      19.483  72.890  47.772  1.00  0.00    +0.028 A 
ATOM     36  C   UNL     1      21.073  71.142  47.966  1.00  0.00    +0.028 A 
ATOM     37  C   UNL     1      20.415  73.803  48.297  1.00  0.00    +0.029 A 
ATOM     38  C   UNL     1      22.010  72.047  48.494  1.00  0.00    +0.029 A 
ATOM     39  C   UNL     1      21.701  73.398  48.670  1.00  0.00    +0.052 A 
BRANCH  39  40
ATOM     40  N   UNL     1      22.640  74.316  49.200  1.00  0.00    -0.250 N 
ATOM     41  C   UNL     1      23.930  74.566  48.761  1.00  0.00    +0.350 C 
ATOM     42  C   UNL     1      22.464  75.164  50.239  1.00  0.00    +0.231 C 
ATOM     43  O   UNL     1      24.543  74.085  47.819  1.00  0.00    -0.246 OA
ATOM     44  N   UNL     1      24.432  75.547  49.634  1.00  0.00    -0.210 N 
ATOM     45  N   UNL     1      23.471  75.922  50.537  1.00  0.00    -0.158 NA
BRANCH  44  46
ATOM     46  C   UNL     1      25.712  76.228  49.511  1.00  0.00    +0.110 C 
ATOM     47  C   UNL     1      26.625  75.491  48.531  1.00  0.00    +0.033 C 
BRANCH  46  48
ATOM     48  C   UNL     1      26.405  76.395  50.875  1.00  0.00    +0.024 C 
ATOM     49  C   UNL     1      26.241  77.790  51.462  1.00  0.00    +0.006 C 
ENDBRANCH  46  48
ENDBRANCH  44  46
ENDBRANCH  39  40
ENDBRANCH  33  34
ENDBRANCH   1  28
TORSDOF 11
ENDMDL
MODEL 4
REMARK VINA RESULT:    -4.128      6.874     14.672
REMARK INTER + INTRA:          -6.897
REMARK INTER:                  -7.599
REMARK INTRA:                   0.701
REMARK UNBOUND:                -0.114
REMARK SMILES CC[C@@H](C)n1ncn(-c2ccc(N3CCN(c4ccc(OC[C@H]5CO[C@](Cn6cncn6)(c6ccc(Cl)cc6Cl)O5)cc4)CC3)cc2)c1=O
REMARK SMILES IDX 17 1 18 2 43 3 20 4 19 5 42 6 21 7 22 8 23 9 26 10 41 11
REMARK SMILES IDX 25 12 24 13 33 14 39 15 38 16 34 17 36 18 35 19 40 20 37 21
REMARK SMILES IDX 27 22 28 23 32 24 29 25 31 26 30 27 16 28 15 29 44 30 14 31
REMARK SMILES IDX 45 32 13 33 12 34 11 35 46 36 10 37 47 38 9 39 8 40 48 41
REMARK SMILES IDX 7 42 49 43 5 44 6 45 3 46 4 47 2 48 1 49
REMARK H PARENT
ROOT
ATOM      1  C   UNL     1      16.753  66.849  43.676  1.00  0.00    +0.037 A 
ATOM      2  C   UNL     1      15.395  66.507  43.784  1.00  0.00    +0.030 A 
ATOM      3  C   UNL     1      17.459  66.250  42.623  1.00  0.00    +0.030 A 
ATOM      4  C   UNL     1      15.495  65.048  41.853  1.00  0.00    +0.119 A 
ATOM      5  C   UNL     1      14.770  65.622  42.891  1.00  0.00    +0.048 A 
ATOM      6  C   UNL     1      16.842  65.368  41.725  1.00  0.00    +0.048 A 
ENDROOT
BRANCH   4   7
ATOM      7  O   UNL     1      15.017  64.177  40.917  1.00  0.00    -0.491 OA
BRANCH   7   8
ATOM      8  C   UNL     1      13.999  64.660  40.035  1.00  0.00    +0.264 C 
BRANCH   8   9
ATOM      9  C   UNL     1      14.668  65.128  38.747  1.00  0.00    +0.185 C 
ATOM     10  C   UNL     1      16.630  65.940  37.898  1.00  0.00    +0.217 C 
ATOM     11  O   UNL     1      16.093  64.966  38.811  1.00  0.00    -0.335 OA
ATOM     12  O   UNL     1      15.597  66.914  37.622  1.00  0.00    -0.341 OA
ATOM     13  C   UNL     1      14.520  66.607  38.507  1.00  0.00    +0.200 C 
BRANCH  10  14
ATOM     14  C   UNL     1      17.023  65.243  36.585  1.00  0.00    +0.032 A 
ATOM     15  C   UNL     1      18.240  65.486  35.912  1.00  0.00    +0.051 A 
ATOM     16  C   UNL     1      18.550  64.824  34.717  1.00  0.00    +0.041 A 
ATOM     17  C   UNL     1      16.127  64.325  35.990  1.00  0.00    +0.012 A 
ATOM     18  C   UNL     1      17.651  63.917  34.168  1.00  0.00    +0.042 A 
ATOM     19  C   UNL     1      16.439  63.667  34.797  1.00  0.00    +0.021 A 
ATOM     20 Cl   UNL     1      19.420  66.619  36.476  1.00  0.00    -0.084 Cl
ATOM     21 Cl   UNL     1      18.036  63.109  32.701  1.00  0.00    -0.084 Cl
ENDBRANCH  10  14
BRANCH  10  22
ATOM     22  C   UNL     1      17.860  66.645  38.504  1.00  0.00    +0.217 C 
BRANCH  22  23
ATOM     23  N   UNL     1      17.685  68.077  38.621  1.00  0.00    -0.247 N 
ATOM     24  N   UNL     1      17.201  68.636  39.748  1.00  0.00    -0.160 NA
ATOM     25  C   UNL     1      17.909  69.025  37.668  1.00  0.00    +0.219 A 
ATOM     26  C   UNL     1      17.182  69.929  39.414  1.00  0.00    +0.246 A 
ATOM     27  N   UNL     1      17.621  70.210  38.152  1.00  0.00    -0.224 NA
ENDBRANCH  22  23
ENDBRANCH  10  22
ENDBRANCH   8   9
ENDBRANCH   7   8
ENDBRANCH   4   7
BRANCH   1  28
ATOM     28  N   UNL     1      17.357  67.720  44.567  1.00  0.00    -0.368 N 
ATOM     29  C   UNL     1      18.445  68.622  44.157  1.00  0.00    +0.138 C 
ATOM     30  C   UNL     1      16.822  67.913  45.928  1.00  0.00    +0.138 C 
ATOM     31  C   UNL     1      19.314  69.064  45.360  1.00  0.00    +0.138 C 
ATOM     32  C   UNL     1      17.085  69.340  46.467  1.00  0.00    +0.138 C 
ATOM     33  N   UNL     1      18.514  69.693  46.426  1.00  0.00    -0.368 N 
BRANCH  33  34
ATOM     34  C   UNL     1      19.055  70.651  47.265  1.00  0.00    +0.037 A 
ATOM     35  C   UNL     1      18.515  71.939  47.363  1.00  0.00    +0.028 A 
ATOM     36  C   UNL     1      20.178  70.399  48.061  1.00  0.00    +0.028 A 
ATOM     37  C   UNL     1      19.062  72.920  48.210  1.00  0.00    +0.029 A 
ATOM     38  C   UNL     1      20.729  71.374  48.911  1.00  0.00    +0.029 A 
ATOM     39  C   UNL     1      20.183  72.656  49.003  1.00  0.00    +0.052 A 
BRANCH  39  40
ATOM     40  N   UNL     1      20.734  73.643  49.856  1.00  0.00    -0.250 N 
ATOM     41  C   UNL     1      20.114  74.310  50.901  1.00  0.00    +0.350 C 
ATOM     42  C   UNL     1      21.997  74.126  49.846  1.00  0.00    +0.231 C 
ATOM     43  O   UNL     1      18.980  74.192  51.341  1.00  0.00    -0.246 OA
ATOM     44  N   UNL     1      21.090  75.186  51.408  1.00  0.00    -0.210 N 
ATOM     45  N   UNL     1      22.275  75.024  50.737  1.00  0.00    -0.158 NA
BRANCH  44  46
ATOM     46  C   UNL     1      20.958  76.020  52.593  1.00  0.00    +0.110 C 
ATOM     47  C   UNL     1      20.998  75.167  53.861  1.00  0.00    +0.033 C 
BRANCH  46  48
ATOM     48  C   UNL     1      19.678  76.872  52.554  1.00  0.00    +0.024 C 
ATOM     49  C   UNL     1      19.706  77.946  51.474  1.00  0.00    +0.006 C 
ENDBRANCH  46  48
ENDBRANCH  44  46
ENDBRANCH  39  40
ENDBRANCH  33  34
ENDBRANCH   1  28
TORSDOF 11
ENDMDL
MODEL 5
REMARK VINA RESULT:    -3.746      7.489     13.740
REMARK INTER + INTRA:          -6.268
REMARK INTER:                  -9.204
REMARK INTRA:                   2.935
REMARK UNBOUND:                -0.114
REMARK SMILES CC[C@@H](C)n1ncn(-c2ccc(N3CCN(c4ccc(OC[C@H]5CO[C@](Cn6cncn6)(c6ccc(Cl)cc6Cl)O5)cc4)CC3)cc2)c1=O
REMARK SMILES IDX 17 1 18 2 43 3 20 4 19 5 42 6 21 7 22 8 23 9 26 10 41 11
REMARK SMILES IDX 25 12 24 13 33 14 39 15 38 16 34 17 36 18 35 19 40 20 37 21
REMARK SMILES IDX 27 22 28 23 32 24 29 25 31 26 30 27 16 28 15 29 44 30 14 31
REMARK SMILES IDX 45 32 13 33 12 34 11 35 46 36 10 37 47 38 9 39 8 40 48 41
REMARK SMILES IDX 7 42 49 43 5 44 6 45 3 46 4 47 2 48 1 49
REMARK H PARENT
ROOT
ATOM      1  C   UNL     1      16.863  67.334  44.743  1.00  0.00    +0.037 A 
ATOM      2  C   UNL     1      15.539  67.703  44.451  1.00  0.00    +0.030 A 
ATOM      3  C   UNL     1      17.226  66.022  44.407  1.00  0.00    +0.030 A 
ATOM      4  C   UNL     1      15.020  65.526  43.524  1.00  0.00    +0.119 A 
ATOM      5  C   UNL     1      14.627  66.819  43.851  1.00  0.00    +0.048 A 
ATOM      6  C   UNL     1      16.324  65.134  43.805  1.00  0.00    +0.048 A 
ENDROOT
BRANCH   4   7
ATOM      7  O   UNL     1      14.243  64.567  42.940  1.00  0.00    -0.491 OA
BRANCH   7   8
ATOM      8  C   UNL     1      13.079  65.010  42.235  1.00  0.00    +0.264 C 
BRANCH   8   9
ATOM      9  C   UNL     1      13.517  65.509  40.862  1.00  0.00    +0.185 C 
ATOM     10  C   UNL     1      15.078  66.797  39.799  1.00  0.00    +0.217 C 
ATOM     11  O   UNL     1      14.918  65.820  40.843  1.00  0.00    -0.335 OA
ATOM     12  O   UNL     1      13.776  67.349  39.496  1.00  0.00    -0.341 OA
ATOM     13  C   UNL     1      12.888  66.822  40.482  1.00  0.00    +0.200 C 
BRANCH  10  14
ATOM     14  C   UNL     1      15.634  66.111  38.540  1.00  0.00    +0.032 A 
ATOM     15  C   UNL     1      15.496  64.730  38.285  1.00  0.00    +0.051 A 
ATOM     16  C   UNL     1      16.021  64.153  37.122  1.00  0.00    +0.041 A 
ATOM     17  C   UNL     1      16.341  66.877  37.585  1.00  0.00    +0.012 A 
ATOM     18  C   UNL     1      16.698  64.940  36.197  1.00  0.00    +0.042 A 
ATOM     19  C   UNL     1      16.864  66.299  36.425  1.00  0.00    +0.021 A 
ATOM     20 Cl   UNL     1      14.708  63.642  39.378  1.00  0.00    -0.084 Cl
ATOM     21 Cl   UNL     1      17.342  64.226  34.772  1.00  0.00    -0.084 Cl
ENDBRANCH  10  14
BRANCH  10  22
ATOM     22  C   UNL     1      16.030  67.927  40.241  1.00  0.00    +0.217 C 
BRANCH  22  23
ATOM     23  N   UNL     1      17.387  67.469  40.453  1.00  0.00    -0.247 N 
ATOM     24  N   UNL     1      17.760  66.895  41.613  1.00  0.00    -0.160 NA
ATOM     25  C   UNL     1      18.447  67.585  39.606  1.00  0.00    +0.219 A 
ATOM     26  C   UNL     1      19.056  66.664  41.387  1.00  0.00    +0.246 A 
ATOM     27  N   UNL     1      19.513  67.059  40.163  1.00  0.00    -0.224 NA
ENDBRANCH  22  23
ENDBRANCH  10  22
ENDBRANCH   8   9
ENDBRANCH   7   8
ENDBRANCH   4   7
BRANCH   1  28
ATOM     28  N   UNL     1      17.748  68.216  45.339  1.00  0.00    -0.368 N 
ATOM     29  C   UNL     1      18.873  68.809  44.597  1.00  0.00    +0.138 C 
ATOM     30  C   UNL     1      17.507  68.742  46.695  1.00  0.00    +0.138 C 
ATOM     31  C   UNL     1      20.004  69.280  45.542  1.00  0.00    +0.138 C 
ATOM     32  C   UNL     1      18.086  70.165  46.887  1.00  0.00    +0.138 C 
ATOM     33  N   UNL     1      19.522  70.227  46.564  1.00  0.00    -0.368 N 
BRANCH  33  34
ATOM     34  C   UNL     1      20.350  71.196  47.100  1.00  0.00    +0.037 A 
ATOM     35  C   UNL     1      20.845  71.106  48.407  1.00  0.00    +0.028 A 
ATOM     36  C   UNL     1      20.740  72.330  46.378  1.00  0.00    +0.028 A 
ATOM     37  C   UNL     1      21.683  72.090  48.962  1.00  0.00    +0.029 A 
ATOM     38  C   UNL     1      21.579  73.316  46.925  1.00  0.00    +0.029 A 
ATOM     39  C   UNL     1      22.068  73.218  48.230  1.00  0.00    +0.052 A 
BRANCH  39  40
ATOM     40  N   UNL     1      22.913  74.208  48.787  1.00  0.00    -0.250 N 
ATOM     41  C   UNL     1      24.244  74.458  48.494  1.00  0.00    +0.350 C 
ATOM     42  C   UNL     1      22.588  75.140  49.712  1.00  0.00    +0.231 C 
ATOM     43  O   UNL     1      24.982  73.913  47.686  1.00  0.00    -0.246 OA
ATOM     44  N   UNL     1      24.610  75.528  49.328  1.00  0.00    -0.210 N 
ATOM     45  N   UNL     1      23.533  75.953  50.063  1.00  0.00    -0.158 NA
BRANCH  44  46
ATOM     46  C   UNL     1      25.881  76.235  49.305  1.00  0.00    +0.110 C 
ATOM     47  C   UNL     1      26.861  75.556  48.348  1.00  0.00    +0.033 C 
BRANCH  46  48
ATOM     48  C   UNL     1      26.495  76.355  50.711  1.00  0.00    +0.024 C 
ATOM     49  C   UNL     1      26.154  77.668  51.403  1.00  0.00    +0.006 C 
ENDBRANCH  46  48
ENDBRANCH  44  46
ENDBRANCH  39  40
ENDBRANCH  33  34
ENDBRANCH   1  28
TORSDOF 11
ENDMDL
MODEL 6
REMARK VINA RESULT:    -3.037      2.367      3.657
REMARK INTER + INTRA:          -5.103
REMARK INTER:                  -5.285
REMARK INTRA:                   0.182
REMARK UNBOUND:                -0.114
REMARK SMILES CC[C@@H](C)n1ncn(-c2ccc(N3CCN(c4ccc(OC[C@H]5CO[C@](Cn6cncn6)(c6ccc(Cl)cc6Cl)O5)cc4)CC3)cc2)c1=O
REMARK SMILES IDX 17 1 18 2 43 3 20 4 19 5 42 6 21 7 22 8 23 9 26 10 41 11
REMARK SMILES IDX 25 12 24 13 33 14 39 15 38 16 34 17 36 18 35 19 40 20 37 21
REMARK SMILES IDX 27 22 28 23 32 24 29 25 31 26 30 27 16 28 15 29 44 30 14 31
REMARK SMILES IDX 45 32 13 33 12 34 11 35 46 36 10 37 47 38 9 39 8 40 48 41
REMARK SMILES IDX 7 42 49 43 5 44 6 45 3 46 4 47 2 48 1 49
REMARK H PARENT
ROOT
ATOM      1  C   UNL     1      15.416  67.566  44.957  1.00  0.00    +0.037 A 
ATOM      2  C   UNL     1      14.168  68.069  45.360  1.00  0.00    +0.030 A 
ATOM      3  C   UNL     1      16.415  67.535  45.939  1.00  0.00    +0.030 A 
ATOM      4  C   UNL     1      14.934  68.464  47.623  1.00  0.00    +0.119 A 
ATOM      5  C   UNL     1      13.924  68.512  46.669  1.00  0.00    +0.048 A 
ATOM      6  C   UNL     1      16.180  67.973  47.250  1.00  0.00    +0.048 A 
ENDROOT
BRANCH   4   7
ATOM      7  O   UNL     1      14.837  68.859  48.927  1.00  0.00    -0.491 OA
BRANCH   7   8
ATOM      8  C   UNL     1      13.924  68.138  49.760  1.00  0.00    +0.264 C 
BRANCH   8   9
ATOM      9  C   UNL     1      12.517  68.662  49.489  1.00  0.00    +0.185 C 
ATOM     10  C   UNL     1      10.469  68.982  50.453  1.00  0.00    +0.217 C 
ATOM     11  O   UNL     1      11.882  69.100  50.698  1.00  0.00    -0.335 OA
ATOM     12  O   UNL     1      10.284  68.120  49.306  1.00  0.00    -0.341 OA
ATOM     13  C   UNL     1      11.575  67.598  48.994  1.00  0.00    +0.200 C 
BRANCH  10  14
ATOM     14  C   UNL     1       9.890  70.369  50.132  1.00  0.00    +0.032 A 
ATOM     15  C   UNL     1       8.708  70.563  49.385  1.00  0.00    +0.051 A 
ATOM     16  C   UNL     1       8.222  71.850  49.121  1.00  0.00    +0.041 A 
ATOM     17  C   UNL     1      10.569  71.527  50.579  1.00  0.00    +0.012 A 
ATOM     18  C   UNL     1       8.908  72.965  49.588  1.00  0.00    +0.042 A 
ATOM     19  C   UNL     1      10.082  72.809  50.314  1.00  0.00    +0.021 A 
ATOM     20 Cl   UNL     1       7.788  69.256  48.718  1.00  0.00    -0.084 Cl
ATOM     21 Cl   UNL     1       8.308  74.541  49.259  1.00  0.00    -0.084 Cl
ENDBRANCH  10  14
BRANCH  10  22
ATOM     22  C   UNL     1       9.745  68.382  51.675  1.00  0.00    +0.217 C 
BRANCH  22  23
ATOM     23  N   UNL     1       9.898  66.946  51.771  1.00  0.00    -0.247 N 
ATOM     24  N   UNL     1       9.198  66.111  50.979  1.00  0.00    -0.160 NA
ATOM     25  C   UNL     1      10.671  66.248  52.649  1.00  0.00    +0.219 A 
ATOM     26  C   UNL     1       9.617  64.920  51.415  1.00  0.00    +0.246 A 
ATOM     27  N   UNL     1      10.531  64.961  52.428  1.00  0.00    -0.224 NA
ENDBRANCH  22  23
ENDBRANCH  10  22
ENDBRANCH   8   9
ENDBRANCH   7   8
ENDBRANCH   4   7
BRANCH   1  28
ATOM     28  N   UNL     1      15.641  67.137  43.660  1.00  0.00    -0.368 N 
ATOM     29  C   UNL     1      14.540  66.943  42.702  1.00  0.00    +0.138 C 
ATOM     30  C   UNL     1      17.008  67.022  43.119  1.00  0.00    +0.138 C 
ATOM     31  C   UNL     1      14.928  65.967  41.565  1.00  0.00    +0.138 C 
ATOM     32  C   UNL     1      17.063  67.276  41.593  1.00  0.00    +0.138 C 
ATOM     33  N   UNL     1      16.145  66.395  40.851  1.00  0.00    -0.368 N 
BRANCH  33  34
ATOM     34  C   UNL     1      16.351  66.079  39.521  1.00  0.00    +0.037 A 
ATOM     35  C   UNL     1      15.544  65.155  38.846  1.00  0.00    +0.028 A 
ATOM     36  C   UNL     1      17.381  66.652  38.767  1.00  0.00    +0.028 A 
ATOM     37  C   UNL     1      15.751  64.824  37.494  1.00  0.00    +0.029 A 
ATOM     38  C   UNL     1      17.593  66.329  37.416  1.00  0.00    +0.029 A 
ATOM     39  C   UNL     1      16.783  65.406  36.751  1.00  0.00    +0.052 A 
BRANCH  39  40
ATOM     40  N   UNL     1      16.992  65.074  35.389  1.00  0.00    -0.250 N 
ATOM     41  C   UNL     1      17.642  63.965  34.872  1.00  0.00    +0.350 C 
ATOM     42  C   UNL     1      16.575  65.763  34.303  1.00  0.00    +0.231 C 
ATOM     43  O   UNL     1      18.156  63.019  35.450  1.00  0.00    -0.246 OA
ATOM     44  N   UNL     1      17.582  64.123  33.476  1.00  0.00    -0.210 N 
ATOM     45  N   UNL     1      16.878  65.253  33.151  1.00  0.00    -0.158 NA
BRANCH  44  46
ATOM     46  C   UNL     1      18.024  63.153  32.485  1.00  0.00    +0.110 C 
ATOM     47  C   UNL     1      19.233  62.368  32.998  1.00  0.00    +0.033 C 
BRANCH  46  48
ATOM     48  C   UNL     1      18.345  63.818  31.136  1.00  0.00    +0.024 C 
ATOM     49  C   UNL     1      19.741  64.424  31.085  1.00  0.00    +0.006 C 
ENDBRANCH  46  48
ENDBRANCH  44  46
ENDBRANCH  39  40
ENDBRANCH  33  34
ENDBRANCH   1  28
TORSDOF 11
ENDMDL
MODEL 7
REMARK VINA RESULT:    -2.968      3.007      4.855
REMARK INTER + INTRA:          -4.991
REMARK INTER:                  -4.205
REMARK INTRA:                  -0.786
REMARK UNBOUND:                -0.114
REMARK SMILES CC[C@@H](C)n1ncn(-c2ccc(N3CCN(c4ccc(OC[C@H]5CO[C@](Cn6cncn6)(c6ccc(Cl)cc6Cl)O5)cc4)CC3)cc2)c1=O
REMARK SMILES IDX 17 1 18 2 43 3 20 4 19 5 42 6 21 7 22 8 23 9 26 10 41 11
REMARK SMILES IDX 25 12 24 13 33 14 39 15 38 16 34 17 36 18 35 19 40 20 37 21
REMARK SMILES IDX 27 22 28 23 32 24 29 25 31 26 30 27 16 28 15 29 44 30 14 31
REMARK SMILES IDX 45 32 13 33 12 34 11 35 46 36 10 37 47 38 9 39 8 40 48 41
REMARK SMILES IDX 7 42 49 43 5 44 6 45 3 46 4 47 2 48 1 49
REMARK H PARENT
ROOT
ATOM      1  C   UNL     1      15.274  67.625  44.272  1.00  0.00    +0.037 A 
ATOM      2  C   UNL     1      16.258  67.682  45.273  1.00  0.00    +0.030 A 
ATOM      3  C   UNL     1      13.972  67.966  44.666  1.00  0.00    +0.030 A 
ATOM      4  C   UNL     1      14.666  68.400  46.952  1.00  0.00    +0.119 A 
ATOM      5  C   UNL     1      15.966  68.063  46.593  1.00  0.00    +0.048 A 
ATOM      6  C   UNL     1      13.672  68.349  45.981  1.00  0.00    +0.048 A 
ENDROOT
BRANCH   4   7
ATOM      7  O   UNL     1      14.243  68.787  48.191  1.00  0.00    -0.491 OA
BRANCH   7   8
ATOM      8  C   UNL     1      13.045  69.567  48.257  1.00  0.00    +0.264 C 
BRANCH   8   9
ATOM      9  C   UNL     1      12.288  69.170  49.519  1.00  0.00    +0.185 C 
ATOM     10  C   UNL     1      10.228  68.550  50.295  1.00  0.00    +0.217 C 
ATOM     11  O   UNL     1      11.151  68.351  49.209  1.00  0.00    -0.335 OA
ATOM     12  O   UNL     1      10.620  69.749  51.003  1.00  0.00    -0.341 OA
ATOM     13  C   UNL     1      11.661  70.342  50.226  1.00  0.00    +0.200 C 
BRANCH  10  14
ATOM     14  C   UNL     1      10.309  67.354  51.258  1.00  0.00    +0.032 A 
ATOM     15  C   UNL     1       9.909  67.418  52.609  1.00  0.00    +0.051 A 
ATOM     16  C   UNL     1      10.004  66.297  53.445  1.00  0.00    +0.041 A 
ATOM     17  C   UNL     1      10.828  66.123  50.794  1.00  0.00    +0.012 A 
ATOM     18  C   UNL     1      10.505  65.098  52.951  1.00  0.00    +0.042 A 
ATOM     19  C   UNL     1      10.921  65.007  51.630  1.00  0.00    +0.021 A 
ATOM     20 Cl   UNL     1       9.306  68.862  53.348  1.00  0.00    -0.084 Cl
ATOM     21 Cl   UNL     1      10.620  63.728  53.982  1.00  0.00    -0.084 Cl
ENDBRANCH  10  14
BRANCH  10  22
ATOM     22  C   UNL     1       8.785  68.705  49.774  1.00  0.00    +0.217 C 
BRANCH  22  23
ATOM     23  N   UNL     1       8.646  69.782  48.817  1.00  0.00    -0.247 N 
ATOM     24  N   UNL     1       8.771  71.071  49.187  1.00  0.00    -0.160 NA
ATOM     25  C   UNL     1       8.330  69.685  47.495  1.00  0.00    +0.219 A 
ATOM     26  C   UNL     1       8.545  71.701  48.031  1.00  0.00    +0.246 A 
ATOM     27  N   UNL     1       8.284  70.886  46.967  1.00  0.00    -0.224 NA
ENDBRANCH  22  23
ENDBRANCH  10  22
ENDBRANCH   8   9
ENDBRANCH   7   8
ENDBRANCH   4   7
BRANCH   1  28
ATOM     28  N   UNL     1      15.577  67.244  42.976  1.00  0.00    -0.368 N 
ATOM     29  C   UNL     1      16.952  66.918  42.563  1.00  0.00    +0.138 C 
ATOM     30  C   UNL     1      14.515  66.973  41.990  1.00  0.00    +0.138 C 
ATOM     31  C   UNL     1      17.148  67.071  41.036  1.00  0.00    +0.138 C 
ATOM     32  C   UNL     1      14.933  65.906  40.950  1.00  0.00    +0.138 C 
ATOM     33  N   UNL     1      16.187  66.262  40.264  1.00  0.00    -0.368 N 
BRANCH  33  34
ATOM     34  C   UNL     1      16.500  65.769  39.011  1.00  0.00    +0.037 A 
ATOM     35  C   UNL     1      17.572  66.271  38.264  1.00  0.00    +0.028 A 
ATOM     36  C   UNL     1      15.762  64.746  38.405  1.00  0.00    +0.028 A 
ATOM     37  C   UNL     1      17.893  65.779  36.985  1.00  0.00    +0.029 A 
ATOM     38  C   UNL     1      16.078  64.247  37.129  1.00  0.00    +0.029 A 
ATOM     39  C   UNL     1      17.150  64.754  36.391  1.00  0.00    +0.052 A 
BRANCH  39  40
ATOM     40  N   UNL     1      17.473  64.257  35.105  1.00  0.00    -0.250 N 
ATOM     41  C   UNL     1      17.242  64.856  33.877  1.00  0.00    +0.350 C 
ATOM     42  C   UNL     1      18.100  63.098  34.806  1.00  0.00    +0.231 C 
ATOM     43  O   UNL     1      16.740  65.939  33.616  1.00  0.00    -0.246 OA
ATOM     44  N   UNL     1      17.737  63.946  32.926  1.00  0.00    -0.210 N 
ATOM     45  N   UNL     1      18.298  62.860  33.547  1.00  0.00    -0.158 NA
BRANCH  44  46
ATOM     46  C   UNL     1      17.833  64.174  31.492  1.00  0.00    +0.110 C 
ATOM     47  C   UNL     1      17.719  62.856  30.726  1.00  0.00    +0.033 C 
BRANCH  46  48
ATOM     48  C   UNL     1      19.133  64.907  31.115  1.00  0.00    +0.024 C 
ATOM     49  C   UNL     1      20.258  63.962  30.714  1.00  0.00    +0.006 C 
ENDBRANCH  46  48
ENDBRANCH  44  46
ENDBRANCH  39  40
ENDBRANCH  33  34
ENDBRANCH   1  28
TORSDOF 11
ENDMDL
MODEL 8
REMARK VINA RESULT:    -2.789      1.261      2.156
REMARK INTER + INTRA:          -4.697
REMARK INTER:                  -4.115
REMARK INTRA:                  -0.582
REMARK UNBOUND:                -0.114
REMARK SMILES CC[C@@H](C)n1ncn(-c2ccc(N3CCN(c4ccc(OC[C@H]5CO[C@](Cn6cncn6)(c6ccc(Cl)cc6Cl)O5)cc4)CC3)cc2)c1=O
REMARK SMILES IDX 17 1 18 2 43 3 20 4 19 5 42 6 21 7 22 8 23 9 26 10 41 11
REMARK SMILES IDX 25 12 24 13 33 14 39 15 38 16 34 17 36 18 35 19 40 20 37 21
REMARK SMILES IDX 27 22 28 23 32 24 29 25 31 26 30 27 16 28 15 29 44 30 14 31
REMARK SMILES IDX 45 32 13 33 12 34 11 35 46 36 10 37 47 38 9 39 8 40 48 41
REMARK SMILES IDX 7 42 49 43 5 44 6 45 3 46 4 47 2 48 1 49
REMARK H PARENT
ROOT
ATOM      1  C   UNL     1      14.847  67.756  44.464  1.00  0.00    +0.037 A 
ATOM      2  C   UNL     1      13.821  68.707  44.590  1.00  0.00    +0.030 A 
ATOM      3  C   UNL     1      15.521  67.414  45.645  1.00  0.00    +0.030 A 
ATOM      4  C   UNL     1      14.162  68.920  46.979  1.00  0.00    +0.119 A 
ATOM      5  C   UNL     1      13.479  69.284  45.824  1.00  0.00    +0.048 A 
ATOM      6  C   UNL     1      15.184  67.983  46.882  1.00  0.00    +0.048 A 
ENDROOT
BRANCH   4   7
ATOM      7  O   UNL     1      13.935  69.397  48.238  1.00  0.00    -0.491 OA
BRANCH   7   8
ATOM      8  C   UNL     1      12.585  69.370  48.712  1.00  0.00    +0.264 C 
BRANCH   8   9
ATOM      9  C   UNL     1      12.010  70.777  48.589  1.00  0.00    +0.185 C 
ATOM     10  C   UNL     1      10.332  72.137  49.339  1.00  0.00    +0.217 C 
ATOM     11  O   UNL     1      11.285  71.149  49.770  1.00  0.00    -0.335 OA
ATOM     12  O   UNL     1      10.214  72.049  47.900  1.00  0.00    -0.341 OA
ATOM     13  C   UNL     1      10.963  70.897  47.514  1.00  0.00    +0.200 C 
BRANCH  10  14
ATOM     14  C   UNL     1      10.846  73.537  49.712  1.00  0.00    +0.032 A 
ATOM     15  C   UNL     1      10.614  74.685  48.924  1.00  0.00    +0.051 A 
ATOM     16  C   UNL     1      11.104  75.939  49.309  1.00  0.00    +0.041 A 
ATOM     17  C   UNL     1      11.611  73.706  50.889  1.00  0.00    +0.012 A 
ATOM     18  C   UNL     1      11.841  76.070  50.481  1.00  0.00    +0.042 A 
ATOM     19  C   UNL     1      12.100  74.958  51.271  1.00  0.00    +0.021 A 
ATOM     20 Cl   UNL     1       9.744  74.642  47.427  1.00  0.00    -0.084 Cl
ATOM     21 Cl   UNL     1      12.442  77.611  50.947  1.00  0.00    -0.084 Cl
ENDBRANCH  10  14
BRANCH  10  22
ATOM     22  C   UNL     1       8.954  71.896  49.988  1.00  0.00    +0.217 C 
BRANCH  22  23
ATOM     23  N   UNL     1       8.149  70.939  49.259  1.00  0.00    -0.247 N 
ATOM     24  N   UNL     1       6.981  71.294  48.688  1.00  0.00    -0.160 NA
ATOM     25  C   UNL     1       8.386  69.608  49.090  1.00  0.00    +0.219 A 
ATOM     26  C   UNL     1       6.578  70.132  48.167  1.00  0.00    +0.246 A 
ATOM     27  N   UNL     1       7.418  69.077  48.379  1.00  0.00    -0.224 NA
ENDBRANCH  22  23
ENDBRANCH  10  22
ENDBRANCH   8   9
ENDBRANCH   7   8
ENDBRANCH   4   7
BRANCH   1  28
ATOM     28  N   UNL     1      15.176  67.200  43.239  1.00  0.00    -0.368 N 
ATOM     29  C   UNL     1      14.236  67.203  42.107  1.00  0.00    +0.138 C 
ATOM     30  C   UNL     1      16.546  66.737  42.953  1.00  0.00    +0.138 C 
ATOM     31  C   UNL     1      14.562  66.089  41.082  1.00  0.00    +0.138 C 
ATOM     32  C   UNL     1      16.913  66.869  41.455  1.00  0.00    +0.138 C 
ATOM     33  N   UNL     1      15.947  66.175  40.585  1.00  0.00    -0.368 N 
BRANCH  33  34
ATOM     34  C   UNL     1      16.290  65.732  39.321  1.00  0.00    +0.037 A 
ATOM     35  C   UNL     1      15.617  64.672  38.700  1.00  0.00    +0.028 A 
ATOM     36  C   UNL     1      17.334  66.304  38.585  1.00  0.00    +0.028 A 
ATOM     37  C   UNL     1      15.964  64.211  37.417  1.00  0.00    +0.029 A 
ATOM     38  C   UNL     1      17.685  65.851  37.301  1.00  0.00    +0.029 A 
ATOM     39  C   UNL     1      17.007  64.793  36.691  1.00  0.00    +0.052 A 
BRANCH  39  40
ATOM     40  N   UNL     1      17.356  64.330  35.398  1.00  0.00    -0.250 N 
ATOM     41  C   UNL     1      17.156  64.964  34.182  1.00  0.00    +0.350 C 
ATOM     42  C   UNL     1      17.984  63.176  35.081  1.00  0.00    +0.231 C 
ATOM     43  O   UNL     1      16.666  66.057  33.942  1.00  0.00    -0.246 OA
ATOM     44  N   UNL     1      17.668  64.079  33.217  1.00  0.00    -0.210 N 
ATOM     45  N   UNL     1      18.209  62.973  33.821  1.00  0.00    -0.158 NA
BRANCH  44  46
ATOM     46  C   UNL     1      17.798  64.346  31.793  1.00  0.00    +0.110 C 
ATOM     47  C   UNL     1      17.536  63.079  30.979  1.00  0.00    +0.033 C 
BRANCH  46  48
ATOM     48  C   UNL     1      19.175  64.937  31.445  1.00  0.00    +0.024 C 
ATOM     49  C   UNL     1      20.078  63.955  30.711  1.00  0.00    +0.006 C 
ENDBRANCH  46  48
ENDBRANCH  44  46
ENDBRANCH  39  40
ENDBRANCH  33  34
ENDBRANCH   1  28
TORSDOF 11
ENDMDL
