MODEL 1
REMARK VINA RESULT:    -7.718      0.000      0.000
REMARK INTER + INTRA:         -14.437
REMARK INTER:                 -12.680
REMARK INTRA:                  -1.757
REMARK UNBOUND:                -1.757
REMARK SMILES CC[C@@H](C)n1ncn(-c2ccc(N3CCN(c4ccc(OC[C@H]5CO[C@](Cn6cncn6)(c6ccc(Cl)cc6Cl)O5)cc4)CC3)cc2)c1=O
REMARK SMILES IDX 17 1 18 2 43 3 20 4 19 5 42 6 21 7 22 8 23 9 26 10 41 11
REMARK SMILES IDX 25 12 24 13 33 14 39 15 38 16 34 17 36 18 35 19 40 20 37 21
REMARK SMILES IDX 27 22 28 23 32 24 29 25 31 26 30 27 16 28 15 29 44 30 14 31
REMARK SMILES IDX 45 32 13 33 12 34 11 35 46 36 10 37 47 38 9 39 8 40 48 41
REMARK SMILES IDX 7 42 49 43 5 44 6 45 3 46 4 47 2 48 1 49
REMARK H PARENT
ROOT
ATOM      1  C   UNL     1      12.384  53.137  -3.876  1.00  0.00    +0.037 A 
ATOM      2  C   UNL     1      13.014  52.298  -4.810  1.00  0.00    +0.030 A 
ATOM      3  C   UNL     1      12.507  52.763  -2.530  1.00  0.00    +0.030 A 
ATOM      4  C   UNL     1      13.840  50.812  -3.085  1.00  0.00    +0.119 A 
ATOM      5  C   UNL     1      13.732  51.153  -4.428  1.00  0.00    +0.048 A 
ATOM      6  C   UNL     1      13.223  51.624  -2.140  1.00  0.00    +0.048 A 
ENDROOT
BRANCH   4   7
ATOM      7  O   UNL     1      14.504  49.734  -2.574  1.00  0.00    -0.491 OA
BRANCH   7   8
ATOM      8  C   UNL     1      13.710  48.689  -2.004  1.00  0.00    +0.264 C 
BRANCH   8   9
ATOM      9  C   UNL     1      12.509  48.453  -2.914  1.00  0.00    +0.185 C 
ATOM     10  C   UNL     1      10.276  47.966  -2.902  1.00  0.00    +0.217 C 
ATOM     11  O   UNL     1      11.278  48.760  -2.243  1.00  0.00    -0.335 OA
ATOM     12  O   UNL     1      10.946  46.926  -3.651  1.00  0.00    -0.341 OA
ATOM     13  C   UNL     1      12.325  47.007  -3.287  1.00  0.00    +0.200 C 
BRANCH  10  14
ATOM     14  C   UNL     1       9.486  48.852  -3.879  1.00  0.00    +0.032 A 
ATOM     15  C   UNL     1       8.476  48.358  -4.732  1.00  0.00    +0.051 A 
ATOM     16  C   UNL     1       7.785  49.209  -5.605  1.00  0.00    +0.041 A 
ATOM     17  C   UNL     1       9.782  50.233  -3.961  1.00  0.00    +0.012 A 
ATOM     18  C   UNL     1       8.094  50.564  -5.648  1.00  0.00    +0.042 A 
ATOM     19  C   UNL     1       9.092  51.080  -4.833  1.00  0.00    +0.021 A 
ATOM     20 Cl   UNL     1       8.029  46.687  -4.797  1.00  0.00    -0.084 Cl
ATOM     21 Cl   UNL     1       7.244  51.603  -6.722  1.00  0.00    -0.084 Cl
ENDBRANCH  10  14
BRANCH  10  22
ATOM     22  C   UNL     1       9.314  47.330  -1.879  1.00  0.00    +0.217 C 
BRANCH  22  23
ATOM     23  N   UNL     1       9.730  46.008  -1.462  1.00  0.00    -0.247 N 
ATOM     24  N   UNL     1       9.203  44.898  -2.015  1.00  0.00    -0.160 NA
ATOM     25  C   UNL     1      10.613  45.686  -0.475  1.00  0.00    +0.219 A 
ATOM     26  C   UNL     1       9.834  43.939  -1.333  1.00  0.00    +0.246 A 
ATOM     27  N   UNL     1      10.717  44.380  -0.389  1.00  0.00    -0.224 NA
ENDBRANCH  22  23
ENDBRANCH  10  22
ENDBRANCH   8   9
ENDBRANCH   7   8
ENDBRANCH   4   7
BRANCH   1  28
ATOM     28  N   UNL     1      11.676  54.260  -4.269  1.00  0.00    -0.368 N 
ATOM     29  C   UNL     1      11.751  55.527  -3.523  1.00  0.00    +0.138 C 
ATOM     30  C   UNL     1      10.950  54.296  -5.552  1.00  0.00    +0.138 C 
ATOM     31  C   UNL     1      10.514  56.421  -3.778  1.00  0.00    +0.138 C 
ATOM     32  C   UNL     1      10.886  55.721  -6.154  1.00  0.00    +0.138 C 
ATOM     33  N   UNL     1      10.306  56.694  -5.212  1.00  0.00    -0.368 N 
BRANCH  33  34
ATOM     34  C   UNL     1       9.701  57.860  -5.646  1.00  0.00    +0.037 A 
ATOM     35  C   UNL     1      10.047  58.465  -6.860  1.00  0.00    +0.028 A 
ATOM     36  C   UNL     1       8.715  58.513  -4.899  1.00  0.00    +0.028 A 
ATOM     37  C   UNL     1       9.441  59.654  -7.306  1.00  0.00    +0.029 A 
ATOM     38  C   UNL     1       8.103  59.700  -5.339  1.00  0.00    +0.029 A 
ATOM     39  C   UNL     1       8.454  60.296  -6.552  1.00  0.00    +0.052 A 
BRANCH  39  40
ATOM     40  N   UNL     1       7.843  61.493  -7.000  1.00  0.00    -0.250 N 
ATOM     41  C   UNL     1       7.884  62.745  -6.409  1.00  0.00    +0.350 C 
ATOM     42  C   UNL     1       7.106  61.669  -8.120  1.00  0.00    +0.231 C 
ATOM     43  O   UNL     1       8.463  63.115  -5.399  1.00  0.00    -0.246 OA
ATOM     44  N   UNL     1       7.108  63.571  -7.242  1.00  0.00    -0.210 N 
ATOM     45  N   UNL     1       6.656  62.866  -8.328  1.00  0.00    -0.158 NA
BRANCH  44  46
ATOM     46  C   UNL     1       6.945  65.010  -7.109  1.00  0.00    +0.110 C 
ATOM     47  C   UNL     1       5.490  65.363  -6.801  1.00  0.00    +0.033 C 
BRANCH  46  48
ATOM     48  C   UNL     1       7.429  65.759  -8.364  1.00  0.00    +0.024 C 
ATOM     49  C   UNL     1       8.942  65.921  -8.418  1.00  0.00    +0.006 C 
ENDBRANCH  46  48
ENDBRANCH  44  46
ENDBRANCH  39  40
ENDBRANCH  33  34
ENDBRANCH   1  28
TORSDOF 11
ENDMDL
MODEL 2
REMARK VINA RESULT:    -7.699      1.293      2.005
REMARK INTER + INTRA:         -14.406
REMARK INTER:                 -12.694
REMARK INTRA:                  -1.712
REMARK UNBOUND:                -1.757
REMARK SMILES CC[C@@H](C)n1ncn(-c2ccc(N3CCN(c4ccc(OC[C@H]5CO[C@](Cn6cncn6)(c6ccc(Cl)cc6Cl)O5)cc4)CC3)cc2)c1=O
REMARK SMILES IDX 17 1 18 2 43 3 20 4 19 5 42 6 21 7 22 8 23 9 26 10 41 11
REMARK SMILES IDX 25 12 24 13 33 14 39 15 38 16 34 17 36 18 35 19 40 20 37 21
REMARK SMILES IDX 27 22 28 23 32 24 29 25 31 26 30 27 16 28 15 29 44 30 14 31
REMARK SMILES IDX 45 32 13 33 12 34 11 35 46 36 10 37 47 38 9 39 8 40 48 41
REMARK SMILES IDX 7 42 49 43 5 44 6 45 3 46 4 47 2 48 1 49
REMARK H PARENT
ROOT
ATOM      1  C   UNL     1      12.635  52.633  -3.700  1.00  0.00    +0.037 A 
ATOM      2  C   UNL     1      12.660  52.189  -2.367  1.00  0.00    +0.030 A 
ATOM      3  C   UNL     1      13.094  51.722  -4.662  1.00  0.00    +0.030 A 
ATOM      4  C   UNL     1      13.552  50.024  -2.988  1.00  0.00    +0.119 A 
ATOM      5  C   UNL     1      13.109  50.907  -2.010  1.00  0.00    +0.048 A 
ATOM      6  C   UNL     1      13.541  50.439  -4.315  1.00  0.00    +0.048 A 
ENDROOT
BRANCH   4   7
ATOM      7  O   UNL     1      14.013  48.755  -2.784  1.00  0.00    -0.491 OA
BRANCH   7   8
ATOM      8  C   UNL     1      13.037  47.743  -2.517  1.00  0.00    +0.264 C 
BRANCH   8   9
ATOM      9  C   UNL     1      11.914  47.882  -3.539  1.00  0.00    +0.185 C 
ATOM     10  C   UNL     1       9.639  47.871  -3.766  1.00  0.00    +0.217 C 
ATOM     11  O   UNL     1      10.704  48.346  -2.923  1.00  0.00    -0.335 OA
ATOM     12  O   UNL     1      10.169  46.822  -4.610  1.00  0.00    -0.341 OA
ATOM     13  C   UNL     1      11.492  46.567  -4.136  1.00  0.00    +0.200 C 
BRANCH  10  14
ATOM     14  C   UNL     1       9.142  49.022  -4.655  1.00  0.00    +0.032 A 
ATOM     15  C   UNL     1       8.317  48.830  -5.784  1.00  0.00    +0.051 A 
ATOM     16  C   UNL     1       7.890  49.914  -6.561  1.00  0.00    +0.041 A 
ATOM     17  C   UNL     1       9.534  50.348  -4.360  1.00  0.00    +0.012 A 
ATOM     18  C   UNL     1       8.284  51.206  -6.233  1.00  0.00    +0.042 A 
ATOM     19  C   UNL     1       9.108  51.428  -5.137  1.00  0.00    +0.021 A 
ATOM     20 Cl   UNL     1       7.792  47.268  -6.314  1.00  0.00    -0.084 Cl
ATOM     21 Cl   UNL     1       7.759  52.532  -7.192  1.00  0.00    -0.084 Cl
ENDBRANCH  10  14
BRANCH  10  22
ATOM     22  C   UNL     1       8.472  47.319  -2.923  1.00  0.00    +0.217 C 
BRANCH  22  23
ATOM     23  N   UNL     1       8.901  46.792  -1.645  1.00  0.00    -0.247 N 
ATOM     24  N   UNL     1       8.717  47.484  -0.504  1.00  0.00    -0.160 NA
ATOM     25  C   UNL     1       9.563  45.626  -1.404  1.00  0.00    +0.219 A 
ATOM     26  C   UNL     1       9.269  46.664   0.394  1.00  0.00    +0.246 A 
ATOM     27  N   UNL     1       9.787  45.508  -0.116  1.00  0.00    -0.224 NA
ENDBRANCH  22  23
ENDBRANCH  10  22
ENDBRANCH   8   9
ENDBRANCH   7   8
ENDBRANCH   4   7
BRANCH   1  28
ATOM     28  N   UNL     1      12.194  53.901  -4.036  1.00  0.00    -0.368 N 
ATOM     29  C   UNL     1      11.650  54.208  -5.369  1.00  0.00    +0.138 C 
ATOM     30  C   UNL     1      12.082  54.965  -3.021  1.00  0.00    +0.138 C 
ATOM     31  C   UNL     1      11.750  55.716  -5.701  1.00  0.00    +0.138 C 
ATOM     32  C   UNL     1      10.949  55.970  -3.342  1.00  0.00    +0.138 C 
ATOM     33  N   UNL     1      11.093  56.558  -4.685  1.00  0.00    -0.368 N 
BRANCH  33  34
ATOM     34  C   UNL     1      10.541  57.784  -5.009  1.00  0.00    +0.037 A 
ATOM     35  C   UNL     1       9.349  57.890  -5.734  1.00  0.00    +0.028 A 
ATOM     36  C   UNL     1      11.140  58.994  -4.641  1.00  0.00    +0.028 A 
ATOM     37  C   UNL     1       8.783  59.133  -6.073  1.00  0.00    +0.029 A 
ATOM     38  C   UNL     1      10.580  60.240  -4.973  1.00  0.00    +0.029 A 
ATOM     39  C   UNL     1       9.390  60.336  -5.698  1.00  0.00    +0.052 A 
BRANCH  39  40
ATOM     40  N   UNL     1       8.821  61.588  -6.037  1.00  0.00    -0.250 N 
ATOM     41  C   UNL     1       7.547  62.052  -5.749  1.00  0.00    +0.350 C 
ATOM     42  C   UNL     1       9.415  62.608  -6.696  1.00  0.00    +0.231 C 
ATOM     43  O   UNL     1       6.642  61.517  -5.128  1.00  0.00    -0.246 OA
ATOM     44  N   UNL     1       7.488  63.337  -6.317  1.00  0.00    -0.210 N 
ATOM     45  N   UNL     1       8.692  63.668  -6.882  1.00  0.00    -0.158 NA
BRANCH  44  46
ATOM     46  C   UNL     1       6.391  64.283  -6.180  1.00  0.00    +0.110 C 
ATOM     47  C   UNL     1       6.548  65.440  -7.169  1.00  0.00    +0.033 C 
BRANCH  46  48
ATOM     48  C   UNL     1       6.271  64.816  -4.741  1.00  0.00    +0.024 C 
ATOM     49  C   UNL     1       4.829  65.035  -4.303  1.00  0.00    +0.006 C 
ENDBRANCH  46  48
ENDBRANCH  44  46
ENDBRANCH  39  40
ENDBRANCH  33  34
ENDBRANCH   1  28
TORSDOF 11
ENDMDL
MODEL 3
REMARK VINA RESULT:    -7.244      6.477      7.614
REMARK INTER + INTRA:         -13.659
REMARK INTER:                 -12.471
REMARK INTRA:                  -1.189
REMARK UNBOUND:                -1.757
REMARK SMILES CC[C@@H](C)n1ncn(-c2ccc(N3CCN(c4ccc(OC[C@H]5CO[C@](Cn6cncn6)(c6ccc(Cl)cc6Cl)O5)cc4)CC3)cc2)c1=O
REMARK SMILES IDX 17 1 18 2 43 3 20 4 19 5 42 6 21 7 22 8 23 9 26 10 41 11
REMARK SMILES IDX 25 12 24 13 33 14 39 15 38 16 34 17 36 18 35 19 40 20 37 21
REMARK SMILES IDX 27 22 28 23 32 24 29 25 31 26 30 27 16 28 15 29 44 30 14 31
REMARK SMILES IDX 45 32 13 33 12 34 11 35 46 36 10 37 47 38 9 39 8 40 48 41
REMARK SMILES IDX 7 42 49 43 5 44 6 45 3 46 4 47 2 48 1 49
REMARK H PARENT
ROOT
ATOM      1  C   UNL     1      12.974  54.222  -2.325  1.00  0.00    +0.037 A 
ATOM      2  C   UNL     1      13.767  53.096  -2.046  1.00  0.00    +0.030 A 
ATOM      3  C   UNL     1      12.147  54.130  -3.453  1.00  0.00    +0.030 A 
ATOM      4  C   UNL     1      12.900  51.876  -3.950  1.00  0.00    +0.119 A 
ATOM      5  C   UNL     1      13.735  51.939  -2.840  1.00  0.00    +0.048 A 
ATOM      6  C   UNL     1      12.107  52.978  -4.251  1.00  0.00    +0.048 A 
ENDROOT
BRANCH   4   7
ATOM      7  O   UNL     1      12.769  50.820  -4.806  1.00  0.00    -0.491 OA
BRANCH   7   8
ATOM      8  C   UNL     1      12.878  49.508  -4.244  1.00  0.00    +0.264 C 
BRANCH   8   9
ATOM      9  C   UNL     1      11.548  48.791  -4.452  1.00  0.00    +0.185 C 
ATOM     10  C   UNL     1       9.647  48.118  -3.375  1.00  0.00    +0.217 C 
ATOM     11  O   UNL     1      10.571  49.216  -3.491  1.00  0.00    -0.335 OA
ATOM     12  O   UNL     1      10.279  46.939  -3.925  1.00  0.00    -0.341 OA
ATOM     13  C   UNL     1      11.630  47.309  -4.200  1.00  0.00    +0.200 C 
BRANCH  10  14
ATOM     14  C   UNL     1       8.381  48.431  -4.189  1.00  0.00    +0.032 A 
ATOM     15  C   UNL     1       7.397  47.466  -4.494  1.00  0.00    +0.051 A 
ATOM     16  C   UNL     1       6.260  47.803  -5.239  1.00  0.00    +0.041 A 
ATOM     17  C   UNL     1       8.179  49.739  -4.687  1.00  0.00    +0.012 A 
ATOM     18  C   UNL     1       6.088  49.104  -5.701  1.00  0.00    +0.042 A 
ATOM     19  C   UNL     1       7.045  50.073  -5.431  1.00  0.00    +0.021 A 
ATOM     20 Cl   UNL     1       7.517  45.809  -4.008  1.00  0.00    -0.084 Cl
ATOM     21 Cl   UNL     1       4.691  49.510  -6.617  1.00  0.00    -0.084 Cl
ENDBRANCH  10  14
BRANCH  10  22
ATOM     22  C   UNL     1       9.272  47.866  -1.901  1.00  0.00    +0.217 C 
BRANCH  22  23
ATOM     23  N   UNL     1       9.980  46.743  -1.325  1.00  0.00    -0.247 N 
ATOM     24  N   UNL     1       9.404  45.530  -1.218  1.00  0.00    -0.160 NA
ATOM     25  C   UNL     1      11.230  46.735  -0.782  1.00  0.00    +0.219 A 
ATOM     26  C   UNL     1      10.374  44.828  -0.624  1.00  0.00    +0.246 A 
ATOM     27  N   UNL     1      11.514  45.528  -0.353  1.00  0.00    -0.224 NA
ENDBRANCH  22  23
ENDBRANCH  10  22
ENDBRANCH   8   9
ENDBRANCH   7   8
ENDBRANCH   4   7
BRANCH   1  28
ATOM     28  N   UNL     1      13.020  55.357  -1.534  1.00  0.00    -0.368 N 
ATOM     29  C   UNL     1      11.851  56.237  -1.368  1.00  0.00    +0.138 C 
ATOM     30  C   UNL     1      14.185  55.647  -0.679  1.00  0.00    +0.138 C 
ATOM     31  C   UNL     1      12.260  57.667  -0.941  1.00  0.00    +0.138 C 
ATOM     32  C   UNL     1      13.799  56.429   0.600  1.00  0.00    +0.138 C 
ATOM     33  N   UNL     1      13.072  57.673   0.290  1.00  0.00    -0.368 N 
BRANCH  33  34
ATOM     34  C   UNL     1      13.056  58.746   1.162  1.00  0.00    +0.037 A 
ATOM     35  C   UNL     1      12.694  60.033   0.745  1.00  0.00    +0.028 A 
ATOM     36  C   UNL     1      13.407  58.619   2.510  1.00  0.00    +0.028 A 
ATOM     37  C   UNL     1      12.680  61.131   1.624  1.00  0.00    +0.029 A 
ATOM     38  C   UNL     1      13.394  59.711   3.396  1.00  0.00    +0.029 A 
ATOM     39  C   UNL     1      13.031  60.991   2.971  1.00  0.00    +0.052 A 
BRANCH  39  40
ATOM     40  N   UNL     1      13.017  62.096   3.857  1.00  0.00    -0.250 N 
ATOM     41  C   UNL     1      12.130  62.348   4.892  1.00  0.00    +0.350 C 
ATOM     42  C   UNL     1      13.886  63.131   3.894  1.00  0.00    +0.231 C 
ATOM     43  O   UNL     1      11.188  61.682   5.294  1.00  0.00    -0.246 OA
ATOM     44  N   UNL     1      12.548  63.572   5.444  1.00  0.00    -0.210 N 
ATOM     45  N   UNL     1      13.675  64.024   4.808  1.00  0.00    -0.158 NA
BRANCH  44  46
ATOM     46  C   UNL     1      12.005  64.202   6.637  1.00  0.00    +0.110 C 
ATOM     47  C   UNL     1      12.107  65.725   6.538  1.00  0.00    +0.033 C 
BRANCH  46  48
ATOM     48  C   UNL     1      12.695  63.697   7.916  1.00  0.00    +0.024 C 
ATOM     49  C   UNL     1      11.767  63.664   9.123  1.00  0.00    +0.006 C 
ENDBRANCH  46  48
ENDBRANCH  44  46
ENDBRANCH  39  40
ENDBRANCH  33  34
ENDBRANCH   1  28
TORSDOF 11
ENDMDL
MODEL 4
REMARK VINA RESULT:    -7.114      2.055      3.475
REMARK INTER + INTRA:         -13.445
REMARK INTER:                 -11.624
REMARK INTRA:                  -1.821
REMARK UNBOUND:                -1.757
REMARK SMILES CC[C@@H](C)n1ncn(-c2ccc(N3CCN(c4ccc(OC[C@H]5CO[C@](Cn6cncn6)(c6ccc(Cl)cc6Cl)O5)cc4)CC3)cc2)c1=O
REMARK SMILES IDX 17 1 18 2 43 3 20 4 19 5 42 6 21 7 22 8 23 9 26 10 41 11
REMARK SMILES IDX 25 12 24 13 33 14 39 15 38 16 34 17 36 18 35 19 40 20 37 21
REMARK SMILES IDX 27 22 28 23 32 24 29 25 31 26 30 27 16 28 15 29 44 30 14 31
REMARK SMILES IDX 45 32 13 33 12 34 11 35 46 36 10 37 47 38 9 39 8 40 48 41
REMARK SMILES IDX 7 42 49 43 5 44 6 45 3 46 4 47 2 48 1 49
REMARK H PARENT
ROOT
ATOM      1  C   UNL     1      12.229  53.161  -3.987  1.00  0.00    +0.037 A 
ATOM      2  C   UNL     1      12.780  52.281  -4.934  1.00  0.00    +0.030 A 
ATOM      3  C   UNL     1      12.420  52.817  -2.641  1.00  0.00    +0.030 A 
ATOM      4  C   UNL     1      13.665  50.815  -3.221  1.00  0.00    +0.119 A 
ATOM      5  C   UNL     1      13.487  51.126  -4.564  1.00  0.00    +0.048 A 
ATOM      6  C   UNL     1      13.128  51.668  -2.263  1.00  0.00    +0.048 A 
ENDROOT
BRANCH   4   7
ATOM      7  O   UNL     1      14.328  49.731  -2.721  1.00  0.00    -0.491 OA
BRANCH   7   8
ATOM      8  C   UNL     1      14.283  48.527  -3.492  1.00  0.00    +0.264 C 
BRANCH   8   9
ATOM      9  C   UNL     1      13.324  47.559  -2.807  1.00  0.00    +0.185 C 
ATOM     10  C   UNL     1      11.141  47.285  -2.186  1.00  0.00    +0.217 C 
ATOM     11  O   UNL     1      11.976  47.754  -3.259  1.00  0.00    -0.335 OA
ATOM     12  O   UNL     1      11.949  47.205  -0.989  1.00  0.00    -0.341 OA
ATOM     13  C   UNL     1      13.206  47.794  -1.325  1.00  0.00    +0.200 C 
BRANCH  10  14
ATOM     14  C   UNL     1      10.616  45.880  -2.526  1.00  0.00    +0.032 A 
ATOM     15  C   UNL     1       9.956  45.051  -1.594  1.00  0.00    +0.051 A 
ATOM     16  C   UNL     1       9.496  43.779  -1.956  1.00  0.00    +0.041 A 
ATOM     17  C   UNL     1      10.810  45.362  -3.828  1.00  0.00    +0.012 A 
ATOM     18  C   UNL     1       9.692  43.307  -3.249  1.00  0.00    +0.042 A 
ATOM     19  C   UNL     1      10.351  44.092  -4.186  1.00  0.00    +0.021 A 
ATOM     20 Cl   UNL     1       9.687  45.511   0.053  1.00  0.00    -0.084 Cl
ATOM     21 Cl   UNL     1       9.127  41.744  -3.686  1.00  0.00    -0.084 Cl
ENDBRANCH  10  14
BRANCH  10  22
ATOM     22  C   UNL     1       9.956  48.242  -1.948  1.00  0.00    +0.217 C 
BRANCH  22  23
ATOM     23  N   UNL     1       9.578  48.975  -3.138  1.00  0.00    -0.247 N 
ATOM     24  N   UNL     1      10.005  50.235  -3.351  1.00  0.00    -0.160 NA
ATOM     25  C   UNL     1       8.745  48.570  -4.137  1.00  0.00    +0.219 A 
ATOM     26  C   UNL     1       9.412  50.521  -4.514  1.00  0.00    +0.246 A 
ATOM     27  N   UNL     1       8.642  49.522  -5.035  1.00  0.00    -0.224 NA
ENDBRANCH  22  23
ENDBRANCH  10  22
ENDBRANCH   8   9
ENDBRANCH   7   8
ENDBRANCH   4   7
BRANCH   1  28
ATOM     28  N   UNL     1      11.530  54.293  -4.368  1.00  0.00    -0.368 N 
ATOM     29  C   UNL     1      11.804  55.612  -3.773  1.00  0.00    +0.138 C 
ATOM     30  C   UNL     1      10.600  54.269  -5.511  1.00  0.00    +0.138 C 
ATOM     31  C   UNL     1      10.595  56.569  -3.909  1.00  0.00    +0.138 C 
ATOM     32  C   UNL     1      10.516  55.637  -6.232  1.00  0.00    +0.138 C 
ATOM     33  N   UNL     1      10.162  56.729  -5.309  1.00  0.00    -0.368 N 
BRANCH  33  34
ATOM     34  C   UNL     1       9.560  57.893  -5.751  1.00  0.00    +0.037 A 
ATOM     35  C   UNL     1       8.676  58.621  -4.947  1.00  0.00    +0.028 A 
ATOM     36  C   UNL     1       9.788  58.413  -7.030  1.00  0.00    +0.028 A 
ATOM     37  C   UNL     1       8.055  59.803  -5.391  1.00  0.00    +0.029 A 
ATOM     38  C   UNL     1       9.174  59.594  -7.481  1.00  0.00    +0.029 A 
ATOM     39  C   UNL     1       8.293  60.314  -6.671  1.00  0.00    +0.052 A 
BRANCH  39  40
ATOM     40  N   UNL     1       7.669  61.504  -7.119  1.00  0.00    -0.250 N 
ATOM     41  C   UNL     1       7.625  62.735  -6.484  1.00  0.00    +0.350 C 
ATOM     42  C   UNL     1       7.003  61.696  -8.280  1.00  0.00    +0.231 C 
ATOM     43  O   UNL     1       8.121  63.087  -5.424  1.00  0.00    -0.246 OA
ATOM     44  N   UNL     1       6.877  63.564  -7.340  1.00  0.00    -0.210 N 
ATOM     45  N   UNL     1       6.525  62.884  -8.477  1.00  0.00    -0.158 NA
BRANCH  44  46
ATOM     46  C   UNL     1       6.653  64.991  -7.169  1.00  0.00    +0.110 C 
ATOM     47  C   UNL     1       5.439  65.245  -6.275  1.00  0.00    +0.033 C 
BRANCH  46  48
ATOM     48  C   UNL     1       6.489  65.710  -8.519  1.00  0.00    +0.024 C 
ATOM     49  C   UNL     1       5.089  66.271  -8.731  1.00  0.00    +0.006 C 
ENDBRANCH  46  48
ENDBRANCH  44  46
ENDBRANCH  39  40
ENDBRANCH  33  34
ENDBRANCH   1  28
TORSDOF 11
ENDMDL
MODEL 5
REMARK VINA RESULT:    -7.069      2.359      4.323
REMARK INTER + INTRA:         -13.371
REMARK INTER:                 -11.485
REMARK INTRA:                  -1.886
REMARK UNBOUND:                -1.757
REMARK SMILES CC[C@@H](C)n1ncn(-c2ccc(N3CCN(c4ccc(OC[C@H]5CO[C@](Cn6cncn6)(c6ccc(Cl)cc6Cl)O5)cc4)CC3)cc2)c1=O
REMARK SMILES IDX 17 1 18 2 43 3 20 4 19 5 42 6 21 7 22 8 23 9 26 10 41 11
REMARK SMILES IDX 25 12 24 13 33 14 39 15 38 16 34 17 36 18 35 19 40 20 37 21
REMARK SMILES IDX 27 22 28 23 32 24 29 25 31 26 30 27 16 28 15 29 44 30 14 31
REMARK SMILES IDX 45 32 13 33 12 34 11 35 46 36 10 37 47 38 9 39 8 40 48 41
REMARK SMILES IDX 7 42 49 43 5 44 6 45 3 46 4 47 2 48 1 49
REMARK H PARENT
ROOT
ATOM      1  C   UNL     1      11.264  51.190  -4.873  1.00  0.00    +0.037 A 
ATOM      2  C   UNL     1      10.689  50.180  -5.662  1.00  0.00    +0.030 A 
ATOM      3  C   UNL     1      12.119  50.762  -3.849  1.00  0.00    +0.030 A 
ATOM      4  C   UNL     1      11.812  48.424  -4.428  1.00  0.00    +0.119 A 
ATOM      5  C   UNL     1      10.954  48.818  -5.449  1.00  0.00    +0.048 A 
ATOM      6  C   UNL     1      12.392  49.404  -3.631  1.00  0.00    +0.048 A 
ENDROOT
BRANCH   4   7
ATOM      7  O   UNL     1      12.158  47.142  -4.110  1.00  0.00    -0.491 OA
BRANCH   7   8
ATOM      8  C   UNL     1      12.050  46.161  -5.147  1.00  0.00    +0.264 C 
BRANCH   8   9
ATOM      9  C   UNL     1      11.472  44.888  -4.538  1.00  0.00    +0.185 C 
ATOM     10  C   UNL     1      10.070  44.118  -2.905  1.00  0.00    +0.217 C 
ATOM     11  O   UNL     1      10.207  45.140  -3.909  1.00  0.00    -0.335 OA
ATOM     12  O   UNL     1      11.375  43.543  -2.667  1.00  0.00    -0.341 OA
ATOM     13  C   UNL     1      12.298  44.348  -3.402  1.00  0.00    +0.200 C 
BRANCH  10  14
ATOM     14  C   UNL     1       9.128  43.019  -3.423  1.00  0.00    +0.032 A 
ATOM     15  C   UNL     1       7.808  43.268  -3.856  1.00  0.00    +0.051 A 
ATOM     16  C   UNL     1       6.991  42.230  -4.321  1.00  0.00    +0.041 A 
ATOM     17  C   UNL     1       9.577  41.678  -3.456  1.00  0.00    +0.012 A 
ATOM     18  C   UNL     1       7.470  40.925  -4.353  1.00  0.00    +0.042 A 
ATOM     19  C   UNL     1       8.759  40.644  -3.919  1.00  0.00    +0.021 A 
ATOM     20 Cl   UNL     1       7.087  44.842  -3.828  1.00  0.00    -0.084 Cl
ATOM     21 Cl   UNL     1       6.461  39.655  -4.922  1.00  0.00    -0.084 Cl
ENDBRANCH  10  14
BRANCH  10  22
ATOM     22  C   UNL     1       9.515  44.705  -1.591  1.00  0.00    +0.217 C 
BRANCH  22  23
ATOM     23  N   UNL     1       9.776  46.122  -1.454  1.00  0.00    -0.247 N 
ATOM     24  N   UNL     1      10.902  46.575  -0.868  1.00  0.00    -0.160 NA
ATOM     25  C   UNL     1       8.966  47.157  -1.812  1.00  0.00    +0.219 A 
ATOM     26  C   UNL     1      10.718  47.897  -0.930  1.00  0.00    +0.246 A 
ATOM     27  N   UNL     1       9.550  48.295  -1.514  1.00  0.00    -0.224 NA
ENDBRANCH  22  23
ENDBRANCH  10  22
ENDBRANCH   8   9
ENDBRANCH   7   8
ENDBRANCH   4   7
BRANCH   1  28
ATOM     28  N   UNL     1      10.988  52.529  -5.093  1.00  0.00    -0.368 N 
ATOM     29  C   UNL     1       9.690  52.979  -5.623  1.00  0.00    +0.138 C 
ATOM     30  C   UNL     1      11.914  53.585  -4.644  1.00  0.00    +0.138 C 
ATOM     31  C   UNL     1       9.791  54.368  -6.298  1.00  0.00    +0.138 C 
ATOM     32  C   UNL     1      11.180  54.899  -4.282  1.00  0.00    +0.138 C 
ATOM     33  N   UNL     1      10.345  55.391  -5.392  1.00  0.00    -0.368 N 
BRANCH  33  34
ATOM     34  C   UNL     1      10.003  56.725  -5.513  1.00  0.00    +0.037 A 
ATOM     35  C   UNL     1       9.307  57.405  -4.507  1.00  0.00    +0.028 A 
ATOM     36  C   UNL     1      10.322  57.479  -6.649  1.00  0.00    +0.028 A 
ATOM     37  C   UNL     1       8.950  58.761  -4.625  1.00  0.00    +0.029 A 
ATOM     38  C   UNL     1       9.971  58.834  -6.773  1.00  0.00    +0.029 A 
ATOM     39  C   UNL     1       9.276  59.504  -5.764  1.00  0.00    +0.052 A 
BRANCH  39  40
ATOM     40  N   UNL     1       8.919  60.869  -5.883  1.00  0.00    -0.250 N 
ATOM     41  C   UNL     1       7.669  61.403  -6.156  1.00  0.00    +0.350 C 
ATOM     42  C   UNL     1       9.723  61.946  -5.729  1.00  0.00    +0.231 C 
ATOM     43  O   UNL     1       6.599  60.840  -6.330  1.00  0.00    -0.246 OA
ATOM     44  N   UNL     1       7.862  62.796  -6.178  1.00  0.00    -0.210 N 
ATOM     45  N   UNL     1       9.163  63.105  -5.877  1.00  0.00    -0.158 NA
BRANCH  44  46
ATOM     46  C   UNL     1       6.819  63.802  -6.307  1.00  0.00    +0.110 C 
ATOM     47  C   UNL     1       7.344  65.033  -7.047  1.00  0.00    +0.033 C 
BRANCH  46  48
ATOM     48  C   UNL     1       6.237  64.202  -4.940  1.00  0.00    +0.024 C 
ATOM     49  C   UNL     1       5.066  65.170  -5.048  1.00  0.00    +0.006 C 
ENDBRANCH  46  48
ENDBRANCH  44  46
ENDBRANCH  39  40
ENDBRANCH  33  34
ENDBRANCH   1  28
TORSDOF 11
ENDMDL
MODEL 6
REMARK VINA RESULT:    -7.068      1.557      2.485
REMARK INTER + INTRA:         -13.370
REMARK INTER:                 -12.213
REMARK INTRA:                  -1.157
REMARK UNBOUND:                -1.757
REMARK SMILES CC[C@@H](C)n1ncn(-c2ccc(N3CCN(c4ccc(OC[C@H]5CO[C@](Cn6cncn6)(c6ccc(Cl)cc6Cl)O5)cc4)CC3)cc2)c1=O
REMARK SMILES IDX 17 1 18 2 43 3 20 4 19 5 42 6 21 7 22 8 23 9 26 10 41 11
REMARK SMILES IDX 25 12 24 13 33 14 39 15 38 16 34 17 36 18 35 19 40 20 37 21
REMARK SMILES IDX 27 22 28 23 32 24 29 25 31 26 30 27 16 28 15 29 44 30 14 31
REMARK SMILES IDX 45 32 13 33 12 34 11 35 46 36 10 37 47 38 9 39 8 40 48 41
REMARK SMILES IDX 7 42 49 43 5 44 6 45 3 46 4 47 2 48 1 49
REMARK H PARENT
ROOT
ATOM      1  C   UNL     1      11.553  54.805  -3.782  1.00  0.00    +0.037 A 
ATOM      2  C   UNL     1      12.133  54.730  -2.505  1.00  0.00    +0.030 A 
ATOM      3  C   UNL     1      11.545  53.617  -4.527  1.00  0.00    +0.030 A 
ATOM      4  C   UNL     1      12.645  52.376  -2.755  1.00  0.00    +0.119 A 
ATOM      5  C   UNL     1      12.672  53.538  -1.993  1.00  0.00    +0.048 A 
ATOM      6  C   UNL     1      12.079  52.423  -4.024  1.00  0.00    +0.048 A 
ENDROOT
BRANCH   4   7
ATOM      7  O   UNL     1      13.129  51.154  -2.385  1.00  0.00    -0.491 OA
BRANCH   7   8
ATOM      8  C   UNL     1      12.192  50.217  -1.843  1.00  0.00    +0.264 C 
BRANCH   8   9
ATOM      9  C   UNL     1      11.408  49.607  -3.000  1.00  0.00    +0.185 C 
ATOM     10  C   UNL     1       9.454  48.540  -3.520  1.00  0.00    +0.217 C 
ATOM     11  O   UNL     1       9.997  49.616  -2.736  1.00  0.00    -0.335 OA
ATOM     12  O   UNL     1      10.544  47.670  -3.905  1.00  0.00    -0.341 OA
ATOM     13  C   UNL     1      11.691  48.142  -3.198  1.00  0.00    +0.200 C 
BRANCH  10  14
ATOM     14  C   UNL     1       8.803  49.113  -4.790  1.00  0.00    +0.032 A 
ATOM     15  C   UNL     1       8.341  48.311  -5.855  1.00  0.00    +0.051 A 
ATOM     16  C   UNL     1       7.754  48.884  -6.990  1.00  0.00    +0.041 A 
ATOM     17  C   UNL     1       8.668  50.514  -4.930  1.00  0.00    +0.012 A 
ATOM     18  C   UNL     1       7.625  50.265  -7.088  1.00  0.00    +0.042 A 
ATOM     19  C   UNL     1       8.083  51.083  -6.064  1.00  0.00    +0.021 A 
ATOM     20 Cl   UNL     1       8.481  46.585  -5.867  1.00  0.00    -0.084 Cl
ATOM     21 Cl   UNL     1       6.906  50.962  -8.485  1.00  0.00    -0.084 Cl
ENDBRANCH  10  14
BRANCH  10  22
ATOM     22  C   UNL     1       8.412  47.740  -2.714  1.00  0.00    +0.217 C 
BRANCH  22  23
ATOM     23  N   UNL     1       8.963  47.148  -1.513  1.00  0.00    -0.247 N 
ATOM     24  N   UNL     1       9.325  45.851  -1.472  1.00  0.00    -0.160 NA
ATOM     25  C   UNL     1       9.141  47.740  -0.299  1.00  0.00    +0.219 A 
ATOM     26  C   UNL     1       9.739  45.733  -0.207  1.00  0.00    +0.246 A 
ATOM     27  N   UNL     1       9.655  46.872   0.541  1.00  0.00    -0.224 NA
ENDBRANCH  22  23
ENDBRANCH  10  22
ENDBRANCH   8   9
ENDBRANCH   7   8
ENDBRANCH   4   7
BRANCH   1  28
ATOM     28  N   UNL     1      11.030  55.989  -4.274  1.00  0.00    -0.368 N 
ATOM     29  C   UNL     1      10.061  56.009  -5.382  1.00  0.00    +0.138 C 
ATOM     30  C   UNL     1      11.281  57.275  -3.598  1.00  0.00    +0.138 C 
ATOM     31  C   UNL     1      10.049  57.373  -6.114  1.00  0.00    +0.138 C 
ATOM     32  C   UNL     1      10.112  58.274  -3.778  1.00  0.00    +0.138 C 
ATOM     33  N   UNL     1       9.788  58.498  -5.197  1.00  0.00    -0.368 N 
BRANCH  33  34
ATOM     34  C   UNL     1       9.165  59.654  -5.631  1.00  0.00    +0.037 A 
ATOM     35  C   UNL     1       7.825  59.930  -5.331  1.00  0.00    +0.028 A 
ATOM     36  C   UNL     1       9.827  60.616  -6.401  1.00  0.00    +0.028 A 
ATOM     37  C   UNL     1       7.182  61.100  -5.773  1.00  0.00    +0.029 A 
ATOM     38  C   UNL     1       9.192  61.790  -6.845  1.00  0.00    +0.029 A 
ATOM     39  C   UNL     1       7.855  62.056  -6.541  1.00  0.00    +0.052 A 
BRANCH  39  40
ATOM     40  N   UNL     1       7.209  63.236  -6.985  1.00  0.00    -0.250 N 
ATOM     41  C   UNL     1       6.615  63.471  -8.214  1.00  0.00    +0.350 C 
ATOM     42  C   UNL     1       7.015  64.378  -6.288  1.00  0.00    +0.231 C 
ATOM     43  O   UNL     1       6.486  62.729  -9.176  1.00  0.00    -0.246 OA
ATOM     44  N   UNL     1       6.139  64.793  -8.145  1.00  0.00    -0.210 N 
ATOM     45  N   UNL     1       6.383  65.326  -6.906  1.00  0.00    -0.158 NA
BRANCH  44  46
ATOM     46  C   UNL     1       5.331  65.465  -9.151  1.00  0.00    +0.110 C 
ATOM     47  C   UNL     1       6.220  66.142 -10.195  1.00  0.00    +0.033 C 
BRANCH  46  48
ATOM     48  C   UNL     1       4.366  66.485  -8.522  1.00  0.00    +0.024 C 
ATOM     49  C   UNL     1       3.062  65.859  -8.045  1.00  0.00    +0.006 C 
ENDBRANCH  46  48
ENDBRANCH  44  46
ENDBRANCH  39  40
ENDBRANCH  33  34
ENDBRANCH   1  28
TORSDOF 11
ENDMDL
MODEL 7
REMARK VINA RESULT:    -7.041      7.155      8.737
REMARK INTER + INTRA:         -13.325
REMARK INTER:                 -11.868
REMARK INTRA:                  -1.457
REMARK UNBOUND:                -1.757
REMARK SMILES CC[C@@H](C)n1ncn(-c2ccc(N3CCN(c4ccc(OC[C@H]5CO[C@](Cn6cncn6)(c6ccc(Cl)cc6Cl)O5)cc4)CC3)cc2)c1=O
REMARK SMILES IDX 17 1 18 2 43 3 20 4 19 5 42 6 21 7 22 8 23 9 26 10 41 11
REMARK SMILES IDX 25 12 24 13 33 14 39 15 38 16 34 17 36 18 35 19 40 20 37 21
REMARK SMILES IDX 27 22 28 23 32 24 29 25 31 26 30 27 16 28 15 29 44 30 14 31
REMARK SMILES IDX 45 32 13 33 12 34 11 35 46 36 10 37 47 38 9 39 8 40 48 41
REMARK SMILES IDX 7 42 49 43 5 44 6 45 3 46 4 47 2 48 1 49
REMARK H PARENT
ROOT
ATOM      1  C   UNL     1      13.422  54.588  -1.688  1.00  0.00    +0.037 A 
ATOM      2  C   UNL     1      12.278  54.087  -2.332  1.00  0.00    +0.030 A 
ATOM      3  C   UNL     1      14.633  53.951  -1.997  1.00  0.00    +0.030 A 
ATOM      4  C   UNL     1      13.551  52.409  -3.529  1.00  0.00    +0.119 A 
ATOM      5  C   UNL     1      12.335  53.016  -3.239  1.00  0.00    +0.048 A 
ATOM      6  C   UNL     1      14.699  52.883  -2.902  1.00  0.00    +0.048 A 
ENDROOT
BRANCH   4   7
ATOM      7  O   UNL     1      13.752  51.365  -4.386  1.00  0.00    -0.491 OA
BRANCH   7   8
ATOM      8  C   UNL     1      12.834  50.270  -4.306  1.00  0.00    +0.264 C 
BRANCH   8   9
ATOM      9  C   UNL     1      13.256  49.379  -3.144  1.00  0.00    +0.185 C 
ATOM     10  C   UNL     1      12.988  47.291  -2.252  1.00  0.00    +0.217 C 
ATOM     11  O   UNL     1      13.174  47.990  -3.496  1.00  0.00    -0.335 OA
ATOM     12  O   UNL     1      12.561  48.250  -1.257  1.00  0.00    -0.341 OA
ATOM     13  C   UNL     1      12.329  49.470  -1.962  1.00  0.00    +0.200 C 
BRANCH  10  14
ATOM     14  C   UNL     1      14.326  46.676  -1.809  1.00  0.00    +0.032 A 
ATOM     15  C   UNL     1      15.112  45.848  -2.639  1.00  0.00    +0.051 A 
ATOM     16  C   UNL     1      16.325  45.313  -2.187  1.00  0.00    +0.041 A 
ATOM     17  C   UNL     1      14.804  46.920  -0.501  1.00  0.00    +0.012 A 
ATOM     18  C   UNL     1      16.771  45.586  -0.898  1.00  0.00    +0.042 A 
ATOM     19  C   UNL     1      16.014  46.384  -0.052  1.00  0.00    +0.021 A 
ATOM     20 Cl   UNL     1      14.644  45.406  -4.246  1.00  0.00    -0.084 Cl
ATOM     21 Cl   UNL     1      18.259  44.924  -0.349  1.00  0.00    -0.084 Cl
ENDBRANCH  10  14
BRANCH  10  22
ATOM     22  C   UNL     1      11.925  46.183  -2.394  1.00  0.00    +0.217 C 
BRANCH  22  23
ATOM     23  N   UNL     1      10.803  46.362  -1.497  1.00  0.00    -0.247 N 
ATOM     24  N   UNL     1      10.827  45.881  -0.238  1.00  0.00    -0.160 NA
ATOM     25  C   UNL     1       9.604  46.948  -1.770  1.00  0.00    +0.219 A 
ATOM     26  C   UNL     1       9.618  46.237   0.203  1.00  0.00    +0.246 A 
ATOM     27  N   UNL     1       8.842  46.905  -0.701  1.00  0.00    -0.224 NA
ENDBRANCH  22  23
ENDBRANCH  10  22
ENDBRANCH   8   9
ENDBRANCH   7   8
ENDBRANCH   4   7
BRANCH   1  28
ATOM     28  N   UNL     1      13.349  55.641  -0.793  1.00  0.00    -0.368 N 
ATOM     29  C   UNL     1      14.490  56.020   0.057  1.00  0.00    +0.138 C 
ATOM     30  C   UNL     1      12.186  56.547  -0.772  1.00  0.00    +0.138 C 
ATOM     31  C   UNL     1      14.039  56.799   1.316  1.00  0.00    +0.138 C 
ATOM     32  C   UNL     1      12.563  57.981  -0.326  1.00  0.00    +0.138 C 
ATOM     33  N   UNL     1      13.245  57.994   0.980  1.00  0.00    -0.368 N 
BRANCH  33  34
ATOM     34  C   UNL     1      13.237  59.110   1.797  1.00  0.00    +0.037 A 
ATOM     35  C   UNL     1      12.915  60.382   1.310  1.00  0.00    +0.028 A 
ATOM     36  C   UNL     1      13.558  59.043   3.157  1.00  0.00    +0.028 A 
ATOM     37  C   UNL     1      12.911  61.523   2.132  1.00  0.00    +0.029 A 
ATOM     38  C   UNL     1      13.553  60.178   3.987  1.00  0.00    +0.029 A 
ATOM     39  C   UNL     1      13.231  61.443   3.491  1.00  0.00    +0.052 A 
BRANCH  39  40
ATOM     40  N   UNL     1      13.225  62.591   4.321  1.00  0.00    -0.250 N 
ATOM     41  C   UNL     1      12.189  63.072   5.105  1.00  0.00    +0.350 C 
ATOM     42  C   UNL     1      14.246  63.450   4.541  1.00  0.00    +0.231 C 
ATOM     43  O   UNL     1      11.068  62.619   5.284  1.00  0.00    -0.246 OA
ATOM     44  N   UNL     1      12.696  64.235   5.712  1.00  0.00    -0.210 N 
ATOM     45  N   UNL     1      14.006  64.429   5.356  1.00  0.00    -0.158 NA
BRANCH  44  46
ATOM     46  C   UNL     1      12.024  65.035   6.723  1.00  0.00    +0.110 C 
ATOM     47  C   UNL     1      12.004  66.511   6.321  1.00  0.00    +0.033 C 
BRANCH  46  48
ATOM     48  C   UNL     1      12.667  64.863   8.110  1.00  0.00    +0.024 C 
ATOM     49  C   UNL     1      12.309  63.541   8.775  1.00  0.00    +0.006 C 
ENDBRANCH  46  48
ENDBRANCH  44  46
ENDBRANCH  39  40
ENDBRANCH  33  34
ENDBRANCH   1  28
TORSDOF 11
ENDMDL
MODEL 8
REMARK VINA RESULT:    -6.956      2.510      3.931
REMARK INTER + INTRA:         -13.185
REMARK INTER:                 -11.901
REMARK INTRA:                  -1.284
REMARK UNBOUND:                -1.757
REMARK SMILES CC[C@@H](C)n1ncn(-c2ccc(N3CCN(c4ccc(OC[C@H]5CO[C@](Cn6cncn6)(c6ccc(Cl)cc6Cl)O5)cc4)CC3)cc2)c1=O
REMARK SMILES IDX 17 1 18 2 43 3 20 4 19 5 42 6 21 7 22 8 23 9 26 10 41 11
REMARK SMILES IDX 25 12 24 13 33 14 39 15 38 16 34 17 36 18 35 19 40 20 37 21
REMARK SMILES IDX 27 22 28 23 32 24 29 25 31 26 30 27 16 28 15 29 44 30 14 31
REMARK SMILES IDX 45 32 13 33 12 34 11 35 46 36 10 37 47 38 9 39 8 40 48 41
REMARK SMILES IDX 7 42 49 43 5 44 6 45 3 46 4 47 2 48 1 49
REMARK H PARENT
ROOT
ATOM      1  C   UNL     1      11.802  52.914  -3.634  1.00  0.00    +0.037 A 
ATOM      2  C   UNL     1      11.263  51.658  -3.959  1.00  0.00    +0.030 A 
ATOM      3  C   UNL     1      12.820  52.917  -2.669  1.00  0.00    +0.030 A 
ATOM      4  C   UNL     1      12.729  50.505  -2.414  1.00  0.00    +0.119 A 
ATOM      5  C   UNL     1      11.714  50.469  -3.363  1.00  0.00    +0.048 A 
ATOM      6  C   UNL     1      13.278  51.735  -2.071  1.00  0.00    +0.048 A 
ENDROOT
BRANCH   4   7
ATOM      7  O   UNL     1      13.262  49.432  -1.758  1.00  0.00    -0.491 OA
BRANCH   7   8
ATOM      8  C   UNL     1      14.210  48.635  -2.476  1.00  0.00    +0.264 C 
BRANCH   8   9
ATOM      9  C   UNL     1      13.735  47.187  -2.441  1.00  0.00    +0.185 C 
ATOM     10  C   UNL     1      11.899  45.859  -2.744  1.00  0.00    +0.217 C 
ATOM     11  O   UNL     1      12.596  46.991  -3.292  1.00  0.00    -0.335 OA
ATOM     12  O   UNL     1      12.369  45.653  -1.392  1.00  0.00    -0.341 OA
ATOM     13  C   UNL     1      13.209  46.769  -1.094  1.00  0.00    +0.200 C 
BRANCH  10  14
ATOM     14  C   UNL     1      12.221  44.609  -3.579  1.00  0.00    +0.032 A 
ATOM     15  C   UNL     1      11.644  43.344  -3.337  1.00  0.00    +0.051 A 
ATOM     16  C   UNL     1      11.972  42.236  -4.129  1.00  0.00    +0.041 A 
ATOM     17  C   UNL     1      13.156  44.701  -4.636  1.00  0.00    +0.012 A 
ATOM     18  C   UNL     1      12.885  42.367  -5.169  1.00  0.00    +0.042 A 
ATOM     19  C   UNL     1      13.482  43.594  -5.424  1.00  0.00    +0.021 A 
ATOM     20 Cl   UNL     1      10.525  43.047  -2.050  1.00  0.00    -0.084 Cl
ATOM     21 Cl   UNL     1      13.285  41.003  -6.136  1.00  0.00    -0.084 Cl
ENDBRANCH  10  14
BRANCH  10  22
ATOM     22  C   UNL     1      10.376  46.101  -2.732  1.00  0.00    +0.217 C 
BRANCH  22  23
ATOM     23  N   UNL     1       9.918  46.739  -1.516  1.00  0.00    -0.247 N 
ATOM     24  N   UNL     1       9.408  46.022  -0.496  1.00  0.00    -0.160 NA
ATOM     25  C   UNL     1       9.873  48.073  -1.241  1.00  0.00    +0.219 A 
ATOM     26  C   UNL     1       9.099  46.986   0.376  1.00  0.00    +0.246 A 
ATOM     27  N   UNL     1       9.381  48.256  -0.038  1.00  0.00    -0.224 NA
ENDBRANCH  22  23
ENDBRANCH  10  22
ENDBRANCH   8   9
ENDBRANCH   7   8
ENDBRANCH   4   7
BRANCH   1  28
ATOM     28  N   UNL     1      11.343  54.078  -4.227  1.00  0.00    -0.368 N 
ATOM     29  C   UNL     1      10.358  54.056  -5.321  1.00  0.00    +0.138 C 
ATOM     30  C   UNL     1      11.684  55.402  -3.676  1.00  0.00    +0.138 C 
ATOM     31  C   UNL     1      10.415  55.345  -6.176  1.00  0.00    +0.138 C 
ATOM     32  C   UNL     1      10.574  56.451  -3.934  1.00  0.00    +0.138 C 
ATOM     33  N   UNL     1      10.239  56.563  -5.364  1.00  0.00    -0.368 N 
BRANCH  33  34
ATOM     34  C   UNL     1       9.679  57.711  -5.895  1.00  0.00    +0.037 A 
ATOM     35  C   UNL     1       8.928  58.597  -5.115  1.00  0.00    +0.028 A 
ATOM     36  C   UNL     1       9.818  58.055  -7.244  1.00  0.00    +0.028 A 
ATOM     37  C   UNL     1       8.350  59.764  -5.648  1.00  0.00    +0.029 A 
ATOM     38  C   UNL     1       9.246  59.220  -7.785  1.00  0.00    +0.029 A 
ATOM     39  C   UNL     1       8.498  60.099  -6.998  1.00  0.00    +0.052 A 
BRANCH  39  40
ATOM     40  N   UNL     1       7.918  61.274  -7.536  1.00  0.00    -0.250 N 
ATOM     41  C   UNL     1       6.909  61.371  -8.481  1.00  0.00    +0.350 C 
ATOM     42  C   UNL     1       8.213  62.555  -7.219  1.00  0.00    +0.231 C 
ATOM     43  O   UNL     1       6.277  60.490  -9.044  1.00  0.00    -0.246 OA
ATOM     44  N   UNL     1       6.718  62.751  -8.673  1.00  0.00    -0.210 N 
ATOM     45  N   UNL     1       7.537  63.469  -7.841  1.00  0.00    -0.158 NA
BRANCH  44  46
ATOM     46  C   UNL     1       5.679  63.365  -9.486  1.00  0.00    +0.110 C 
ATOM     47  C   UNL     1       6.106  63.428 -10.953  1.00  0.00    +0.033 C 
BRANCH  46  48
ATOM     48  C   UNL     1       5.305  64.767  -8.972  1.00  0.00    +0.024 C 
ATOM     49  C   UNL     1       3.920  65.217  -9.417  1.00  0.00    +0.006 C 
ENDBRANCH  46  48
ENDBRANCH  44  46
ENDBRANCH  39  40
ENDBRANCH  33  34
ENDBRANCH   1  28
TORSDOF 11
ENDMDL
MODEL 9
REMARK VINA RESULT:    -6.886     11.410     13.750
REMARK INTER + INTRA:         -13.071
REMARK INTER:                 -11.313
REMARK INTRA:                  -1.758
REMARK UNBOUND:                -1.757
REMARK SMILES CC[C@@H](C)n1ncn(-c2ccc(N3CCN(c4ccc(OC[C@H]5CO[C@](Cn6cncn6)(c6ccc(Cl)cc6Cl)O5)cc4)CC3)cc2)c1=O
REMARK SMILES IDX 17 1 18 2 43 3 20 4 19 5 42 6 21 7 22 8 23 9 26 10 41 11
REMARK SMILES IDX 25 12 24 13 33 14 39 15 38 16 34 17 36 18 35 19 40 20 37 21
REMARK SMILES IDX 27 22 28 23 32 24 29 25 31 26 30 27 16 28 15 29 44 30 14 31
REMARK SMILES IDX 45 32 13 33 12 34 11 35 46 36 10 37 47 38 9 39 8 40 48 41
REMARK SMILES IDX 7 42 49 43 5 44 6 45 3 46 4 47 2 48 1 49
REMARK H PARENT
ROOT
ATOM      1  C   UNL     1      17.152  51.908   5.376  1.00  0.00    +0.037 A 
ATOM      2  C   UNL     1      16.573  50.794   4.746  1.00  0.00    +0.030 A 
ATOM      3  C   UNL     1      18.332  51.668   6.093  1.00  0.00    +0.030 A 
ATOM      4  C   UNL     1      18.314  49.305   5.533  1.00  0.00    +0.119 A 
ATOM      5  C   UNL     1      17.139  49.511   4.819  1.00  0.00    +0.048 A 
ATOM      6  C   UNL     1      18.906  50.391   6.169  1.00  0.00    +0.048 A 
ENDROOT
BRANCH   4   7
ATOM      7  O   UNL     1      18.971  48.118   5.686  1.00  0.00    -0.491 OA
BRANCH   7   8
ATOM      8  C   UNL     1      20.223  48.151   6.378  1.00  0.00    +0.264 C 
BRANCH   8   9
ATOM      9  C   UNL     1      20.269  46.965   7.335  1.00  0.00    +0.185 C 
ATOM     10  C   UNL     1      19.269  44.966   7.816  1.00  0.00    +0.217 C 
ATOM     11  O   UNL     1      19.732  45.782   6.725  1.00  0.00    -0.335 OA
ATOM     12  O   UNL     1      19.154  45.805   8.988  1.00  0.00    -0.341 OA
ATOM     13  C   UNL     1      19.382  47.141   8.538  1.00  0.00    +0.200 C 
BRANCH  10  14
ATOM     14  C   UNL     1      20.298  43.858   8.095  1.00  0.00    +0.032 A 
ATOM     15  C   UNL     1      20.885  43.071   7.081  1.00  0.00    +0.051 A 
ATOM     16  C   UNL     1      21.819  42.074   7.389  1.00  0.00    +0.041 A 
ATOM     17  C   UNL     1      20.674  43.579   9.429  1.00  0.00    +0.012 A 
ATOM     18  C   UNL     1      22.176  41.836   8.712  1.00  0.00    +0.042 A 
ATOM     19  C   UNL     1      21.605  42.582   9.734  1.00  0.00    +0.021 A 
ATOM     20 Cl   UNL     1      20.493  43.246   5.404  1.00  0.00    -0.084 Cl
ATOM     21 Cl   UNL     1      23.321  40.609   9.083  1.00  0.00    -0.084 Cl
ENDBRANCH  10  14
BRANCH  10  22
ATOM     22  C   UNL     1      17.899  44.338   7.492  1.00  0.00    +0.217 C 
BRANCH  22  23
ATOM     23  N   UNL     1      17.119  45.133   6.568  1.00  0.00    -0.247 N 
ATOM     24  N   UNL     1      16.227  46.044   7.005  1.00  0.00    -0.160 NA
ATOM     25  C   UNL     1      17.113  45.062   5.207  1.00  0.00    +0.219 A 
ATOM     26  C   UNL     1      15.735  46.505   5.852  1.00  0.00    +0.246 A 
ATOM     27  N   UNL     1      16.262  45.939   4.726  1.00  0.00    -0.224 NA
ENDBRANCH  22  23
ENDBRANCH  10  22
ENDBRANCH   8   9
ENDBRANCH   7   8
ENDBRANCH   4   7
BRANCH   1  28
ATOM     28  N   UNL     1      16.579  53.166   5.298  1.00  0.00    -0.368 N 
ATOM     29  C   UNL     1      15.130  53.371   5.460  1.00  0.00    +0.138 C 
ATOM     30  C   UNL     1      17.409  54.382   5.225  1.00  0.00    +0.138 C 
ATOM     31  C   UNL     1      14.655  54.689   4.801  1.00  0.00    +0.138 C 
ATOM     32  C   UNL     1      16.723  55.606   5.878  1.00  0.00    +0.138 C 
ATOM     33  N   UNL     1      15.389  55.863   5.308  1.00  0.00    -0.368 N 
BRANCH  33  34
ATOM     34  C   UNL     1      14.806  57.117   5.349  1.00  0.00    +0.037 A 
ATOM     35  C   UNL     1      14.598  57.797   6.554  1.00  0.00    +0.028 A 
ATOM     36  C   UNL     1      14.380  57.782   4.194  1.00  0.00    +0.028 A 
ATOM     37  C   UNL     1      14.001  59.070   6.606  1.00  0.00    +0.029 A 
ATOM     38  C   UNL     1      13.785  59.055   4.236  1.00  0.00    +0.029 A 
ATOM     39  C   UNL     1      13.581  59.725   5.444  1.00  0.00    +0.052 A 
BRANCH  39  40
ATOM     40  N   UNL     1      12.981  61.007   5.494  1.00  0.00    -0.250 N 
ATOM     41  C   UNL     1      13.606  62.237   5.629  1.00  0.00    +0.350 C 
ATOM     42  C   UNL     1      11.665  61.303   5.395  1.00  0.00    +0.231 C 
ATOM     43  O   UNL     1      14.795  62.505   5.711  1.00  0.00    -0.246 OA
ATOM     44  N   UNL     1      12.563  63.180   5.636  1.00  0.00    -0.210 N 
ATOM     45  N   UNL     1      11.354  62.559   5.458  1.00  0.00    -0.158 NA
BRANCH  44  46
ATOM     46  C   UNL     1      12.717  64.627   5.637  1.00  0.00    +0.110 C 
ATOM     47  C   UNL     1      11.859  65.261   6.733  1.00  0.00    +0.033 C 
BRANCH  46  48
ATOM     48  C   UNL     1      12.382  65.239   4.266  1.00  0.00    +0.024 C 
ATOM     49  C   UNL     1      13.175  64.618   3.124  1.00  0.00    +0.006 C 
ENDBRANCH  46  48
ENDBRANCH  44  46
ENDBRANCH  39  40
ENDBRANCH  33  34
ENDBRANCH   1  28
TORSDOF 11
ENDMDL
