MODEL 1
REMARK VINA RESULT:    -8.648      0.000      0.000
REMARK INTER + INTRA:         -13.869
REMARK INTER:                 -13.452
REMARK INTRA:                  -0.418
REMARK UNBOUND:                -0.418
REMARK SMILES CC[C@H](C)[C@H]1O[C@]2(CC[C@@H]1C)C[C@@H]1C[C@@H](C/C=C(\C)[C@@H](O[C@H]3C[C@H](OC)[C@@H](O[C@H]4C[C@H](OC)[C@@H](O)[C@H](C)O4)[C@H](C)O3)[C@@H](C)/C=C/C=C3\CO[C@@H]4[C@H](O)C(C)=C[C@@H](C(=O)O1)[C@]34O)O2
REMARK SMILES IDX 41 1 22 2 27 3 24 4 23 5 39 6 40 7 21 8 20 9 6 10 7 11 5 12
REMARK SMILES IDX 62 13 8 14 12 15 10 16 15 17 9 18 13 19 14 20 16 21 59 22
REMARK SMILES IDX 17 23 57 24 18 25 58 26 56 27 60 28 55 29 42 30 50 31 47 32
REMARK SMILES IDX 53 33 44 34 49 35 51 36 48 37 46 38 45 39 11 40 19 41 43 42
REMARK SMILES IDX 54 43 3 44 4 45 2 46 1 47 61 48 52 50 25 52 26 53 28 54
REMARK SMILES IDX 29 55 38 56 30 57 36 58 31 59 34 60 37 61 32 62 33 63 35 64
REMARK H PARENT 61 49 52 51 35 65
ROOT
ATOM      1  O   UNL     1      11.065  58.196  -2.219  1.00  0.00    -0.347 OA
ATOM      2  C   UNL     1      12.126  57.509  -1.557  1.00  0.00    +0.253 C 
ATOM      3  C   UNL     1      10.814  56.120  -3.523  1.00  0.00    +0.179 C 
ATOM      4  C   UNL     1      11.359  55.253  -2.365  1.00  0.00    +0.154 C 
ATOM      5  C   UNL     1      11.718  56.097  -1.141  1.00  0.00    +0.097 C 
ATOM      6  C   UNL     1      10.144  57.375  -2.944  1.00  0.00    +0.150 C 
ATOM      7  C   UNL     1       9.529  58.251  -4.034  1.00  0.00    +0.041 C 
ENDROOT
BRANCH   2   8
ATOM      8  O   UNL     1      12.457  58.224  -0.368  1.00  0.00    -0.344 OA
BRANCH   8   9
ATOM      9  C   UNL     1      13.546  59.158  -0.486  1.00  0.00    +0.153 C 
ATOM     10  O   UNL     1      16.654  56.137   5.247  1.00  0.00    -0.346 OA
ATOM     11  C   UNL     1      17.561  57.242   5.143  1.00  0.00    +0.172 C 
ATOM     12  C   UNL     1      17.269  54.863   5.041  1.00  0.00    +0.127 C 
ATOM     13  O   UNL     1      17.734  57.638   3.772  1.00  0.00    -0.346 OA
ATOM     14  C   UNL     1      18.964  56.880   5.678  1.00  0.00    +0.066 C 
ATOM     15  C   UNL     1      16.972  58.405   5.958  1.00  0.00    +0.111 C 
ATOM     16  C   UNL     1      18.189  54.548   6.250  1.00  0.00    +0.015 C 
ATOM     17  C   UNL     1      16.517  58.027   3.123  1.00  0.00    +0.129 C 
ATOM     18  C   UNL     1      18.884  55.822   6.768  1.00  0.00    +0.011 C 
ATOM     19  C   UNL     1      15.664  58.879   5.339  1.00  0.00    +0.184 C 
ATOM     20  C   UNL     1      15.887  59.193   3.869  1.00  0.00    +0.078 C 
ATOM     21  C   UNL     1      16.844  58.398   1.659  1.00  0.00    +0.059 C 
ATOM     22  O   UNL     1      15.229  60.123   5.920  1.00  0.00    -0.462 OA
ATOM     23  C   UNL     1      15.673  59.017   0.931  1.00  0.00    -0.023 C 
ATOM     24  C   UNL     1      14.383  60.074   6.989  1.00  0.00    +0.316 C 
ATOM     25  C   UNL     1      14.791  58.439   0.089  1.00  0.00    -0.048 C 
ATOM     26  O   UNL     1      14.124  59.065   7.627  1.00  0.00    -0.251 OA
ATOM     27  C   UNL     1      13.844  61.482   7.237  1.00  0.00    +0.161 C 
ATOM     28  C   UNL     1      12.549  61.736   6.417  1.00  0.00    +0.134 C 
ATOM     29  C   UNL     1      13.690  61.779   8.710  1.00  0.00    -0.007 C 
ATOM     30  C   UNL     1      13.150  60.541   0.155  1.00  0.00    +0.042 C 
ATOM     31  C   UNL     1      11.958  63.101   6.766  1.00  0.00    +0.188 C 
ATOM     32  C   UNL     1      12.840  62.004   4.956  1.00  0.00    -0.009 C 
ATOM     33  C   UNL     1      12.778  62.648   9.182  1.00  0.00    -0.045 C 
ATOM     34  C   UNL     1      12.749  60.426   1.618  1.00  0.00    -0.021 C 
ATOM     35  O   UNL     1      12.853  64.049   6.130  1.00  0.00    -0.367 OA
ATOM     36  C   UNL     1      11.798  63.355   8.278  1.00  0.00    +0.172 C 
ATOM     37  C   UNL     1      13.190  63.463   4.849  1.00  0.00    +0.195 C 
ATOM     38  C   UNL     1      12.696  61.120   3.955  1.00  0.00    +0.004 C 
ATOM     39  C   UNL     1      12.999  61.353   2.559  1.00  0.00    -0.004 C 
ATOM     40  C   UNL     1      19.214  53.469   5.891  1.00  0.00    +0.010 C 
ATOM     41  C   UNL     1      14.943  57.007  -0.371  1.00  0.00    +0.042 C 
ATOM     42  C   UNL     1      12.022  61.241  -0.608  1.00  0.00    +0.015 C 
ATOM     43  C   UNL     1      12.646  62.924  10.654  1.00  0.00    +0.042 C 
BRANCH  12  44
ATOM     44  C   UNL     1      16.161  53.803   4.791  1.00  0.00    +0.015 C 
ATOM     45  C   UNL     1      16.526  52.418   5.350  1.00  0.00    +0.010 C 
BRANCH  44  46
ATOM     46  C   UNL     1      14.800  54.215   5.403  1.00  0.00    +0.002 C 
ATOM     47  C   UNL     1      13.878  54.947   4.438  1.00  0.00    +0.004 C 
ENDBRANCH  44  46
ENDBRANCH  12  44
BRANCH  28  48
ATOM     48  O   UNL     1      11.577  60.713   6.595  1.00  0.00    -0.381 OA
ATOM     49  H   UNL     1      10.701  61.074   6.373  1.00  0.00    +0.212 HD
ENDBRANCH  28  48
BRANCH  36  50
ATOM     50  O   UNL     1      11.868  64.761   8.528  1.00  0.00    -0.386 OA
ATOM     51  H   UNL     1      12.656  64.880   9.093  1.00  0.00    +0.211 HD
ENDBRANCH  36  50
ENDBRANCH   8   9
ENDBRANCH   2   8
BRANCH   4  52
ATOM     52  O   UNL     1      12.530  54.563  -2.848  1.00  0.00    -0.378 OA
ATOM     53  C   UNL     1      12.639  53.232  -2.351  1.00  0.00    +0.195 C 
ENDBRANCH   4  52
BRANCH   3  54
ATOM     54  O   UNL     1       9.845  55.360  -4.261  1.00  0.00    -0.344 OA
BRANCH  54  55
ATOM     55  C   UNL     1      10.377  54.794  -5.463  1.00  0.00    +0.253 C 
ATOM     56  O   UNL     1       9.613  55.280  -6.565  1.00  0.00    -0.347 OA
ATOM     57  C   UNL     1      10.317  53.277  -5.294  1.00  0.00    +0.097 C 
ATOM     58  C   UNL     1       9.542  54.428  -7.707  1.00  0.00    +0.149 C 
ATOM     59  C   UNL     1       9.018  52.728  -5.862  1.00  0.00    +0.154 C 
ATOM     60  C   UNL     1       8.911  53.062  -7.363  1.00  0.00    +0.172 C 
ATOM     61  C   UNL     1      10.904  54.308  -8.388  1.00  0.00    +0.041 C 
BRANCH  59  62
ATOM     62  O   UNL     1       9.008  51.294  -5.725  1.00  0.00    -0.378 OA
ATOM     63  C   UNL     1       9.407  50.865  -4.430  1.00  0.00    +0.195 C 
ENDBRANCH  59  62
BRANCH  60  64
ATOM     64  O   UNL     1       7.508  53.078  -7.700  1.00  0.00    -0.388 OA
ATOM     65  H   UNL     1       7.026  52.656  -6.971  1.00  0.00    +0.211 HD
ENDBRANCH  60  64
ENDBRANCH  54  55
ENDBRANCH   3  54
TORSDOF 11
ENDMDL
MODEL 2
REMARK VINA RESULT:    -8.460      4.634      9.640
REMARK INTER + INTRA:         -13.577
REMARK INTER:                 -11.595
REMARK INTRA:                  -1.981
REMARK UNBOUND:                -0.418
REMARK SMILES CC[C@H](C)[C@H]1O[C@]2(CC[C@@H]1C)C[C@@H]1C[C@@H](C/C=C(\C)[C@@H](O[C@H]3C[C@H](OC)[C@@H](O[C@H]4C[C@H](OC)[C@@H](O)[C@H](C)O4)[C@H](C)O3)[C@@H](C)/C=C/C=C3\CO[C@@H]4[C@H](O)C(C)=C[C@@H](C(=O)O1)[C@]34O)O2
REMARK SMILES IDX 41 1 22 2 27 3 24 4 23 5 39 6 40 7 21 8 20 9 6 10 7 11 5 12
REMARK SMILES IDX 62 13 8 14 12 15 10 16 15 17 9 18 13 19 14 20 16 21 59 22
REMARK SMILES IDX 17 23 57 24 18 25 58 26 56 27 60 28 55 29 42 30 50 31 47 32
REMARK SMILES IDX 53 33 44 34 49 35 51 36 48 37 46 38 45 39 11 40 19 41 43 42
REMARK SMILES IDX 54 43 3 44 4 45 2 46 1 47 61 48 52 50 25 52 26 53 28 54
REMARK SMILES IDX 29 55 38 56 30 57 36 58 31 59 34 60 37 61 32 62 33 63 35 64
REMARK H PARENT 61 49 52 51 35 65
ROOT
ATOM      1  O   UNL     1      16.332  54.545   4.313  1.00  0.00    -0.347 OA
ATOM      2  C   UNL     1      17.226  55.605   3.981  1.00  0.00    +0.253 C 
ATOM      3  C   UNL     1      18.294  53.507   5.386  1.00  0.00    +0.179 C 
ATOM      4  C   UNL     1      18.940  54.882   5.674  1.00  0.00    +0.154 C 
ATOM      5  C   UNL     1      18.069  56.037   5.179  1.00  0.00    +0.097 C 
ATOM      6  C   UNL     1      16.767  53.663   5.353  1.00  0.00    +0.150 C 
ATOM      7  C   UNL     1      16.058  52.328   5.131  1.00  0.00    +0.041 C 
ENDROOT
BRANCH   2   8
ATOM      8  O   UNL     1      16.456  56.735   3.573  1.00  0.00    -0.344 OA
BRANCH   8   9
ATOM      9  C   UNL     1      15.047  56.499   3.400  1.00  0.00    +0.153 C 
ATOM     10  O   UNL     1      14.746  62.066  -1.135  1.00  0.00    -0.346 OA
ATOM     11  C   UNL     1      13.331  61.851  -1.058  1.00  0.00    +0.172 C 
ATOM     12  C   UNL     1      15.292  61.856  -2.439  1.00  0.00    +0.127 C 
ATOM     13  O   UNL     1      13.031  60.459  -0.870  1.00  0.00    -0.346 OA
ATOM     14  C   UNL     1      12.617  62.285  -2.357  1.00  0.00    +0.066 C 
ATOM     15  C   UNL     1      12.800  62.671   0.131  1.00  0.00    +0.111 C 
ATOM     16  C   UNL     1      14.814  62.997  -3.373  1.00  0.00    +0.015 C 
ATOM     17  C   UNL     1      13.609  59.896   0.314  1.00  0.00    +0.129 C 
ATOM     18  C   UNL     1      13.366  63.414  -3.049  1.00  0.00    +0.011 C 
ATOM     19  C   UNL     1      13.374  62.141   1.438  1.00  0.00    +0.184 C 
ATOM     20  C   UNL     1      13.110  60.649   1.538  1.00  0.00    +0.078 C 
ATOM     21  C   UNL     1      13.232  58.398   0.375  1.00  0.00    +0.059 C 
ATOM     22  O   UNL     1      12.699  62.712   2.576  1.00  0.00    -0.462 OA
ATOM     23  C   UNL     1      13.616  57.745   1.683  1.00  0.00    -0.023 C 
ATOM     24  C   UNL     1      13.217  63.847   3.130  1.00  0.00    +0.316 C 
ATOM     25  C   UNL     1      14.700  56.997   1.976  1.00  0.00    -0.048 C 
ATOM     26  O   UNL     1      14.085  64.538   2.620  1.00  0.00    -0.251 OA
ATOM     27  C   UNL     1      12.518  64.088   4.467  1.00  0.00    +0.161 C 
ATOM     28  C   UNL     1      13.261  63.366   5.624  1.00  0.00    +0.134 C 
ATOM     29  C   UNL     1      12.284  65.557   4.727  1.00  0.00    -0.007 C 
ATOM     30  C   UNL     1      14.239  57.121   4.600  1.00  0.00    +0.042 C 
ATOM     31  C   UNL     1      12.620  63.713   6.967  1.00  0.00    +0.188 C 
ATOM     32  C   UNL     1      12.985  61.878   5.642  1.00  0.00    -0.009 C 
ATOM     33  C   UNL     1      12.215  66.070   5.969  1.00  0.00    -0.045 C 
ATOM     34  C   UNL     1      14.476  58.615   4.767  1.00  0.00    -0.021 C 
ATOM     35  O   UNL     1      11.371  62.975   6.965  1.00  0.00    -0.367 OA
ATOM     36  C   UNL     1      12.420  65.223   7.201  1.00  0.00    +0.172 C 
ATOM     37  C   UNL     1      11.681  61.693   6.368  1.00  0.00    +0.195 C 
ATOM     38  C   UNL     1      13.814  60.922   5.189  1.00  0.00    +0.004 C 
ATOM     39  C   UNL     1      13.549  59.500   5.172  1.00  0.00    -0.004 C 
ATOM     40  C   UNL     1      14.953  62.596  -4.844  1.00  0.00    +0.010 C 
ATOM     41  C   UNL     1      15.693  56.576   0.917  1.00  0.00    +0.042 C 
ATOM     42  C   UNL     1      14.537  56.426   5.932  1.00  0.00    +0.015 C 
ATOM     43  C   UNL     1      11.982  67.538   6.200  1.00  0.00    +0.042 C 
BRANCH  12  44
ATOM     44  C   UNL     1      16.837  61.732  -2.324  1.00  0.00    +0.015 C 
ATOM     45  C   UNL     1      17.487  62.975  -1.697  1.00  0.00    +0.010 C 
BRANCH  44  46
ATOM     46  C   UNL     1      17.270  60.501  -1.491  1.00  0.00    +0.002 C 
ATOM     47  C   UNL     1      16.557  59.210  -1.868  1.00  0.00    +0.004 C 
ENDBRANCH  44  46
ENDBRANCH  12  44
BRANCH  28  48
ATOM     48  O   UNL     1      14.653  63.655   5.647  1.00  0.00    -0.381 OA
ATOM     49  H   UNL     1      15.023  63.342   6.491  1.00  0.00    +0.212 HD
ENDBRANCH  28  48
BRANCH  36  50
ATOM     50  O   UNL     1      11.314  65.418   8.086  1.00  0.00    -0.386 OA
ATOM     51  H   UNL     1      10.677  65.960   7.582  1.00  0.00    +0.211 HD
ENDBRANCH  36  50
ENDBRANCH   8   9
ENDBRANCH   2   8
BRANCH   4  52
ATOM     52  O   UNL     1      20.221  54.912   5.010  1.00  0.00    -0.378 OA
ATOM     53  C   UNL     1      21.319  54.921   5.917  1.00  0.00    +0.195 C 
ENDBRANCH   4  52
BRANCH   3  54
ATOM     54  O   UNL     1      18.658  52.590   6.429  1.00  0.00    -0.344 OA
BRANCH  54  55
ATOM     55  C   UNL     1      19.538  51.555   5.979  1.00  0.00    +0.253 C 
ATOM     56  O   UNL     1      19.432  51.461   4.560  1.00  0.00    -0.347 OA
ATOM     57  C   UNL     1      19.122  50.281   6.713  1.00  0.00    +0.097 C 
ATOM     58  C   UNL     1      19.700  50.180   3.991  1.00  0.00    +0.149 C 
ATOM     59  C   UNL     1      18.117  49.495   5.888  1.00  0.00    +0.154 C 
ATOM     60  C   UNL     1      18.733  49.102   4.531  1.00  0.00    +0.172 C 
ATOM     61  C   UNL     1      21.171  49.804   4.154  1.00  0.00    +0.041 C 
BRANCH  59  62
ATOM     62  O   UNL     1      17.775  48.282   6.585  1.00  0.00    -0.378 OA
ATOM     63  C   UNL     1      18.919  47.537   6.983  1.00  0.00    +0.195 C 
ENDBRANCH  59  62
BRANCH  60  64
ATOM     64  O   UNL     1      17.645  48.920   3.601  1.00  0.00    -0.388 OA
ATOM     65  H   UNL     1      16.821  49.123   4.072  1.00  0.00    +0.211 HD
ENDBRANCH  60  64
ENDBRANCH  54  55
ENDBRANCH   3  54
TORSDOF 11
ENDMDL
MODEL 3
REMARK VINA RESULT:    -8.248      6.558     13.383
REMARK INTER + INTRA:         -13.246
REMARK INTER:                 -11.879
REMARK INTRA:                  -1.366
REMARK UNBOUND:                -0.418
REMARK SMILES CC[C@H](C)[C@H]1O[C@]2(CC[C@@H]1C)C[C@@H]1C[C@@H](C/C=C(\C)[C@@H](O[C@H]3C[C@H](OC)[C@@H](O[C@H]4C[C@H](OC)[C@@H](O)[C@H](C)O4)[C@H](C)O3)[C@@H](C)/C=C/C=C3\CO[C@@H]4[C@H](O)C(C)=C[C@@H](C(=O)O1)[C@]34O)O2
REMARK SMILES IDX 41 1 22 2 27 3 24 4 23 5 39 6 40 7 21 8 20 9 6 10 7 11 5 12
REMARK SMILES IDX 62 13 8 14 12 15 10 16 15 17 9 18 13 19 14 20 16 21 59 22
REMARK SMILES IDX 17 23 57 24 18 25 58 26 56 27 60 28 55 29 42 30 50 31 47 32
REMARK SMILES IDX 53 33 44 34 49 35 51 36 48 37 46 38 45 39 11 40 19 41 43 42
REMARK SMILES IDX 54 43 3 44 4 45 2 46 1 47 61 48 52 50 25 52 26 53 28 54
REMARK SMILES IDX 29 55 38 56 30 57 36 58 31 59 34 60 37 61 32 62 33 63 35 64
REMARK H PARENT 61 49 52 51 35 65
ROOT
ATOM      1  O   UNL     1      14.848  50.482  -3.667  1.00  0.00    -0.347 OA
ATOM      2  C   UNL     1      15.401  49.680  -4.709  1.00  0.00    +0.253 C 
ATOM      3  C   UNL     1      13.532  48.474  -3.105  1.00  0.00    +0.179 C 
ATOM      4  C   UNL     1      14.622  47.529  -3.660  1.00  0.00    +0.154 C 
ATOM      5  C   UNL     1      15.825  48.302  -4.202  1.00  0.00    +0.097 C 
ATOM      6  C   UNL     1      14.190  49.772  -2.612  1.00  0.00    +0.150 C 
ATOM      7  C   UNL     1      13.175  50.731  -1.995  1.00  0.00    +0.041 C 
ENDROOT
BRANCH   2   8
ATOM      8  O   UNL     1      16.570  50.328  -5.207  1.00  0.00    -0.344 OA
BRANCH   8   9
ATOM      9  C   UNL     1      16.422  50.986  -6.478  1.00  0.00    +0.153 C 
ATOM     10  O   UNL     1      11.334  55.185  -3.628  1.00  0.00    -0.346 OA
ATOM     11  C   UNL     1      11.145  55.610  -4.984  1.00  0.00    +0.172 C 
ATOM     12  C   UNL     1      11.781  56.224  -2.754  1.00  0.00    +0.127 C 
ATOM     13  O   UNL     1      12.384  55.577  -5.711  1.00  0.00    -0.346 OA
ATOM     14  C   UNL     1      10.628  57.063  -5.059  1.00  0.00    +0.066 C 
ATOM     15  C   UNL     1      10.127  54.657  -5.633  1.00  0.00    +0.111 C 
ATOM     16  C   UNL     1      10.623  57.234  -2.542  1.00  0.00    +0.015 C 
ATOM     17  C   UNL     1      12.996  54.282  -5.756  1.00  0.00    +0.129 C 
ATOM     18  C   UNL     1       9.802  57.421  -3.833  1.00  0.00    +0.011 C 
ATOM     19  C   UNL     1      10.696  53.247  -5.714  1.00  0.00    +0.184 C 
ATOM     20  C   UNL     1      12.047  53.287  -6.407  1.00  0.00    +0.078 C 
ATOM     21  C   UNL     1      14.323  54.399  -6.538  1.00  0.00    +0.059 C 
ATOM     22  O   UNL     1       9.880  52.399  -6.544  1.00  0.00    -0.462 OA
ATOM     23  C   UNL     1      14.959  53.057  -6.824  1.00  0.00    -0.023 C 
ATOM     24  C   UNL     1       8.895  51.668  -5.947  1.00  0.00    +0.316 C 
ATOM     25  C   UNL     1      15.954  52.427  -6.164  1.00  0.00    -0.048 C 
ATOM     26  O   UNL     1       8.508  51.826  -4.800  1.00  0.00    -0.251 OA
ATOM     27  C   UNL     1       8.373  50.651  -6.961  1.00  0.00    +0.161 C 
ATOM     28  C   UNL     1       9.186  49.328  -6.893  1.00  0.00    +0.134 C 
ATOM     29  C   UNL     1       6.882  50.446  -6.844  1.00  0.00    -0.007 C 
ATOM     30  C   UNL     1      15.516  50.123  -7.436  1.00  0.00    +0.042 C 
ATOM     31  C   UNL     1       8.578  48.282  -7.827  1.00  0.00    +0.188 C 
ATOM     32  C   UNL     1      10.534  49.449  -7.569  1.00  0.00    -0.009 C 
ATOM     33  C   UNL     1       6.280  49.292  -7.183  1.00  0.00    -0.045 C 
ATOM     34  C   UNL     1      14.137  49.843  -6.857  1.00  0.00    -0.021 C 
ATOM     35  O   UNL     1       8.942  48.738  -9.155  1.00  0.00    -0.367 OA
ATOM     36  C   UNL     1       7.058  48.089  -7.659  1.00  0.00    +0.172 C 
ATOM     37  C   UNL     1      10.301  49.226  -9.037  1.00  0.00    +0.195 C 
ATOM     38  C   UNL     1      11.712  49.613  -6.942  1.00  0.00    +0.004 C 
ATOM     39  C   UNL     1      13.004  49.761  -7.576  1.00  0.00    -0.004 C 
ATOM     40  C   UNL     1      11.154  58.575  -2.030  1.00  0.00    +0.010 C 
ATOM     41  C   UNL     1      16.708  53.087  -5.032  1.00  0.00    +0.042 C 
ATOM     42  C   UNL     1      16.167  48.792  -7.819  1.00  0.00    +0.015 C 
ATOM     43  C   UNL     1       4.792  49.115  -7.055  1.00  0.00    +0.042 C 
BRANCH  12  44
ATOM     44  C   UNL     1      12.316  55.583  -1.444  1.00  0.00    +0.015 C 
ATOM     45  C   UNL     1      12.903  54.180  -1.665  1.00  0.00    +0.010 C 
BRANCH  44  46
ATOM     46  C   UNL     1      13.406  56.449  -0.765  1.00  0.00    +0.002 C 
ATOM     47  C   UNL     1      13.410  56.368   0.755  1.00  0.00    +0.004 C 
ENDBRANCH  44  46
ENDBRANCH  12  44
BRANCH  28  48
ATOM     48  O   UNL     1       9.289  48.815  -5.571  1.00  0.00    -0.381 OA
ATOM     49  H   UNL     1       9.189  49.551  -4.942  1.00  0.00    +0.212 HD
ENDBRANCH  28  48
BRANCH  36  50
ATOM     50  O   UNL     1       6.503  47.639  -8.897  1.00  0.00    -0.386 OA
ATOM     51  H   UNL     1       6.477  46.665  -8.824  1.00  0.00    +0.211 HD
ENDBRANCH  36  50
ENDBRANCH   8   9
ENDBRANCH   2   8
BRANCH   4  52
ATOM     52  O   UNL     1      14.026  46.744  -4.714  1.00  0.00    -0.378 OA
ATOM     53  C   UNL     1      14.153  45.341  -4.504  1.00  0.00    +0.195 C 
ENDBRANCH   4  52
BRANCH   3  54
ATOM     54  O   UNL     1      12.867  47.830  -2.008  1.00  0.00    -0.344 OA
BRANCH  54  55
ATOM     55  C   UNL     1      11.521  47.455  -2.314  1.00  0.00    +0.253 C 
ATOM     56  O   UNL     1      10.642  48.250  -1.521  1.00  0.00    -0.347 OA
ATOM     57  C   UNL     1      11.413  45.956  -2.038  1.00  0.00    +0.097 C 
ATOM     58  C   UNL     1       9.382  47.664  -1.196  1.00  0.00    +0.149 C 
ATOM     59  C   UNL     1      10.935  45.709  -0.616  1.00  0.00    +0.154 C 
ATOM     60  C   UNL     1       9.550  46.350  -0.401  1.00  0.00    +0.172 C 
ATOM     61  C   UNL     1       8.513  47.506  -2.442  1.00  0.00    +0.041 C 
BRANCH  59  62
ATOM     62  O   UNL     1      10.805  44.291  -0.398  1.00  0.00    -0.378 OA
ATOM     63  C   UNL     1      10.422  43.589  -1.574  1.00  0.00    +0.195 C 
ENDBRANCH  59  62
BRANCH  60  64
ATOM     64  O   UNL     1       9.415  46.619   1.010  1.00  0.00    -0.388 OA
ATOM     65  H   UNL     1       8.692  47.257   1.119  1.00  0.00    +0.211 HD
ENDBRANCH  60  64
ENDBRANCH  54  55
ENDBRANCH   3  54
TORSDOF 11
ENDMDL
MODEL 4
REMARK VINA RESULT:    -8.113      6.396     11.014
REMARK INTER + INTRA:         -13.036
REMARK INTER:                 -11.700
REMARK INTRA:                  -1.337
REMARK UNBOUND:                -0.418
REMARK SMILES CC[C@H](C)[C@H]1O[C@]2(CC[C@@H]1C)C[C@@H]1C[C@@H](C/C=C(\C)[C@@H](O[C@H]3C[C@H](OC)[C@@H](O[C@H]4C[C@H](OC)[C@@H](O)[C@H](C)O4)[C@H](C)O3)[C@@H](C)/C=C/C=C3\CO[C@@H]4[C@H](O)C(C)=C[C@@H](C(=O)O1)[C@]34O)O2
REMARK SMILES IDX 41 1 22 2 27 3 24 4 23 5 39 6 40 7 21 8 20 9 6 10 7 11 5 12
REMARK SMILES IDX 62 13 8 14 12 15 10 16 15 17 9 18 13 19 14 20 16 21 59 22
REMARK SMILES IDX 17 23 57 24 18 25 58 26 56 27 60 28 55 29 42 30 50 31 47 32
REMARK SMILES IDX 53 33 44 34 49 35 51 36 48 37 46 38 45 39 11 40 19 41 43 42
REMARK SMILES IDX 54 43 3 44 4 45 2 46 1 47 61 48 52 50 25 52 26 53 28 54
REMARK SMILES IDX 29 55 38 56 30 57 36 58 31 59 34 60 37 61 32 62 33 63 35 64
REMARK H PARENT 61 49 52 51 35 65
ROOT
ATOM      1  O   UNL     1      11.892  52.733  -5.164  1.00  0.00    -0.347 OA
ATOM      2  C   UNL     1      12.647  53.256  -4.073  1.00  0.00    +0.253 C 
ATOM      3  C   UNL     1      12.137  50.562  -4.024  1.00  0.00    +0.179 C 
ATOM      4  C   UNL     1      12.233  51.233  -2.634  1.00  0.00    +0.154 C 
ATOM      5  C   UNL     1      12.124  52.756  -2.728  1.00  0.00    +0.097 C 
ATOM      6  C   UNL     1      11.298  51.448  -4.957  1.00  0.00    +0.150 C 
ATOM      7  C   UNL     1      11.111  50.816  -6.334  1.00  0.00    +0.041 C 
ENDROOT
BRANCH   2   8
ATOM      8  O   UNL     1      12.525  54.677  -4.076  1.00  0.00    -0.344 OA
BRANCH   8   9
ATOM      9  C   UNL     1      11.654  55.228  -3.071  1.00  0.00    +0.153 C 
ATOM     10  O   UNL     1       9.287  60.031  -7.865  1.00  0.00    -0.346 OA
ATOM     11  C   UNL     1       8.629  60.607  -6.729  1.00  0.00    +0.172 C 
ATOM     12  C   UNL     1       8.390  59.543  -8.866  1.00  0.00    +0.127 C 
ATOM     13  O   UNL     1       8.253  59.594  -5.783  1.00  0.00    -0.346 OA
ATOM     14  C   UNL     1       7.330  61.338  -7.133  1.00  0.00    +0.066 C 
ATOM     15  C   UNL     1       9.608  61.600  -6.079  1.00  0.00    +0.111 C 
ATOM     16  C   UNL     1       7.706  60.751  -9.558  1.00  0.00    +0.015 C 
ATOM     17  C   UNL     1       9.356  58.825  -5.287  1.00  0.00    +0.129 C 
ATOM     18  C   UNL     1       7.419  61.882  -8.551  1.00  0.00    +0.011 C 
ATOM     19  C   UNL     1      10.822  60.864  -5.528  1.00  0.00    +0.184 C 
ATOM     20  C   UNL     1      10.360  59.745  -4.610  1.00  0.00    +0.078 C 
ATOM     21  C   UNL     1       8.808  57.763  -4.309  1.00  0.00    +0.059 C 
ATOM     22  O   UNL     1      11.621  61.722  -4.692  1.00  0.00    -0.462 OA
ATOM     23  C   UNL     1       9.899  57.024  -3.568  1.00  0.00    -0.023 C 
ATOM     24  C   UNL     1      12.647  62.412  -5.269  1.00  0.00    +0.316 C 
ATOM     25  C   UNL     1      10.440  55.815  -3.831  1.00  0.00    -0.048 C 
ATOM     26  O   UNL     1      12.821  62.524  -6.473  1.00  0.00    -0.251 OA
ATOM     27  C   UNL     1      13.508  63.008  -4.157  1.00  0.00    +0.161 C 
ATOM     28  C   UNL     1      14.621  62.016  -3.720  1.00  0.00    +0.134 C 
ATOM     29  C   UNL     1      14.032  64.377  -4.517  1.00  0.00    -0.007 C 
ATOM     30  C   UNL     1      12.458  56.203  -2.130  1.00  0.00    +0.042 C 
ATOM     31  C   UNL     1      15.544  62.671  -2.693  1.00  0.00    +0.188 C 
ATOM     32  C   UNL     1      14.086  60.907  -2.839  1.00  0.00    -0.009 C 
ATOM     33  C   UNL     1      15.184  64.865  -4.024  1.00  0.00    -0.045 C 
ATOM     34  C   UNL     1      13.130  57.340  -2.884  1.00  0.00    -0.021 C 
ATOM     35  O   UNL     1      14.750  62.715  -1.480  1.00  0.00    -0.367 OA
ATOM     36  C   UNL     1      16.074  64.057  -3.110  1.00  0.00    +0.172 C 
ATOM     37  C   UNL     1      14.033  61.458  -1.441  1.00  0.00    +0.195 C 
ATOM     38  C   UNL     1      13.825  59.650  -3.236  1.00  0.00    +0.004 C 
ATOM     39  C   UNL     1      13.285  58.589  -2.413  1.00  0.00    -0.004 C 
ATOM     40  C   UNL     1       6.426  60.317 -10.277  1.00  0.00    +0.010 C 
ATOM     41  C   UNL     1       9.898  54.914  -4.916  1.00  0.00    +0.042 C 
ATOM     42  C   UNL     1      13.516  55.475  -1.297  1.00  0.00    +0.015 C 
ATOM     43  C   UNL     1      15.684  66.233  -4.401  1.00  0.00    +0.042 C 
BRANCH  12  44
ATOM     44  C   UNL     1       9.174  58.614  -9.834  1.00  0.00    +0.015 C 
ATOM     45  C   UNL     1      10.697  58.794  -9.727  1.00  0.00    +0.010 C 
BRANCH  44  46
ATOM     46  C   UNL     1       8.858  57.116  -9.601  1.00  0.00    +0.002 C 
ATOM     47  C   UNL     1       9.373  56.569  -8.276  1.00  0.00    +0.004 C 
ENDBRANCH  44  46
ENDBRANCH  12  44
BRANCH  28  48
ATOM     48  O   UNL     1      15.373  61.517  -4.818  1.00  0.00    -0.381 OA
ATOM     49  H   UNL     1      14.833  60.863  -5.296  1.00  0.00    +0.212 HD
ENDBRANCH  28  48
BRANCH  36  50
ATOM     50  O   UNL     1      16.352  64.825  -1.937  1.00  0.00    -0.386 OA
ATOM     51  H   UNL     1      17.287  64.634  -1.724  1.00  0.00    +0.211 HD
ENDBRANCH  36  50
ENDBRANCH   8   9
ENDBRANCH   2   8
BRANCH   4  52
ATOM     52  O   UNL     1      13.503  50.865  -2.057  1.00  0.00    -0.378 OA
ATOM     53  C   UNL     1      14.438  50.390  -3.021  1.00  0.00    +0.195 C 
ENDBRANCH   4  52
BRANCH   3  54
ATOM     54  O   UNL     1      11.502  49.282  -3.883  1.00  0.00    -0.344 OA
BRANCH  54  55
ATOM     55  C   UNL     1      10.668  49.198  -2.723  1.00  0.00    +0.253 C 
ATOM     56  O   UNL     1      10.919  47.952  -2.078  1.00  0.00    -0.347 OA
ATOM     57  C   UNL     1       9.229  49.360  -3.210  1.00  0.00    +0.097 C 
ATOM     58  C   UNL     1       9.837  47.399  -1.330  1.00  0.00    +0.149 C 
ATOM     59  C   UNL     1       8.607  48.002  -3.497  1.00  0.00    +0.154 C 
ATOM     60  C   UNL     1       8.601  47.140  -2.219  1.00  0.00    +0.172 C 
ATOM     61  C   UNL     1       9.527  48.253  -0.102  1.00  0.00    +0.041 C 
BRANCH  59  62
ATOM     62  O   UNL     1       7.240  48.184  -3.915  1.00  0.00    -0.378 OA
ATOM     63  C   UNL     1       7.118  49.078  -5.014  1.00  0.00    +0.195 C 
ENDBRANCH  59  62
BRANCH  60  64
ATOM     64  O   UNL     1       8.585  45.759  -2.633  1.00  0.00    -0.388 OA
ATOM     65  H   UNL     1       7.943  45.292  -2.074  1.00  0.00    +0.211 HD
ENDBRANCH  60  64
ENDBRANCH  54  55
ENDBRANCH   3  54
TORSDOF 11
ENDMDL
MODEL 5
REMARK VINA RESULT:    -8.021      5.097     11.398
REMARK INTER + INTRA:         -12.894
REMARK INTER:                 -11.034
REMARK INTRA:                  -1.860
REMARK UNBOUND:                -0.418
REMARK SMILES CC[C@H](C)[C@H]1O[C@]2(CC[C@@H]1C)C[C@@H]1C[C@@H](C/C=C(\C)[C@@H](O[C@H]3C[C@H](OC)[C@@H](O[C@H]4C[C@H](OC)[C@@H](O)[C@H](C)O4)[C@H](C)O3)[C@@H](C)/C=C/C=C3\CO[C@@H]4[C@H](O)C(C)=C[C@@H](C(=O)O1)[C@]34O)O2
REMARK SMILES IDX 41 1 22 2 27 3 24 4 23 5 39 6 40 7 21 8 20 9 6 10 7 11 5 12
REMARK SMILES IDX 62 13 8 14 12 15 10 16 15 17 9 18 13 19 14 20 16 21 59 22
REMARK SMILES IDX 17 23 57 24 18 25 58 26 56 27 60 28 55 29 42 30 50 31 47 32
REMARK SMILES IDX 53 33 44 34 49 35 51 36 48 37 46 38 45 39 11 40 19 41 43 42
REMARK SMILES IDX 54 43 3 44 4 45 2 46 1 47 61 48 52 50 25 52 26 53 28 54
REMARK SMILES IDX 29 55 38 56 30 57 36 58 31 59 34 60 37 61 32 62 33 63 35 64
REMARK H PARENT 61 49 52 51 35 65
ROOT
ATOM      1  O   UNL     1      11.824  60.456  -8.310  1.00  0.00    -0.347 OA
ATOM      2  C   UNL     1      10.943  59.356  -8.530  1.00  0.00    +0.253 C 
ATOM      3  C   UNL     1      10.474  61.611 -10.019  1.00  0.00    +0.179 C 
ATOM      4  C   UNL     1       9.214  60.787  -9.668  1.00  0.00    +0.154 C 
ATOM      5  C   UNL     1       9.478  59.792  -8.537  1.00  0.00    +0.097 C 
ATOM      6  C   UNL     1      11.363  61.730  -8.772  1.00  0.00    +0.150 C 
ATOM      7  C   UNL     1      12.603  62.584  -9.031  1.00  0.00    +0.041 C 
ENDROOT
BRANCH   2   8
ATOM      8  O   UNL     1      11.104  58.425  -7.462  1.00  0.00    -0.344 OA
BRANCH   8   9
ATOM      9  C   UNL     1       9.928  58.176  -6.670  1.00  0.00    +0.153 C 
ATOM     10  O   UNL     1      14.059  57.747  -0.805  1.00  0.00    -0.346 OA
ATOM     11  C   UNL     1      12.848  57.309  -0.175  1.00  0.00    +0.172 C 
ATOM     12  C   UNL     1      14.565  58.981  -0.290  1.00  0.00    +0.127 C 
ATOM     13  O   UNL     1      11.701  57.934  -0.773  1.00  0.00    -0.346 OA
ATOM     14  C   UNL     1      12.820  57.678   1.324  1.00  0.00    +0.066 C 
ATOM     15  C   UNL     1      12.763  55.782  -0.341  1.00  0.00    +0.111 C 
ATOM     16  C   UNL     1      15.100  58.743   1.146  1.00  0.00    +0.015 C 
ATOM     17  C   UNL     1      11.565  57.676  -2.176  1.00  0.00    +0.129 C 
ATOM     18  C   UNL     1      14.224  57.730   1.908  1.00  0.00    +0.011 C 
ATOM     19  C   UNL     1      12.624  55.415  -1.812  1.00  0.00    +0.184 C 
ATOM     20  C   UNL     1      11.455  56.177  -2.414  1.00  0.00    +0.078 C 
ATOM     21  C   UNL     1      10.316  58.426  -2.690  1.00  0.00    +0.059 C 
ATOM     22  O   UNL     1      12.282  54.026  -1.976  1.00  0.00    -0.462 OA
ATOM     23  C   UNL     1       9.956  58.067  -4.113  1.00  0.00    -0.023 C 
ATOM     24  C   UNL     1      13.296  53.126  -2.134  1.00  0.00    +0.316 C 
ATOM     25  C   UNL     1      10.238  58.726  -5.257  1.00  0.00    -0.048 C 
ATOM     26  O   UNL     1      14.477  53.368  -1.942  1.00  0.00    -0.251 OA
ATOM     27  C   UNL     1      12.689  51.794  -2.573  1.00  0.00    +0.161 C 
ATOM     28  C   UNL     1      12.580  51.714  -4.120  1.00  0.00    +0.134 C 
ATOM     29  C   UNL     1      13.406  50.616  -1.959  1.00  0.00    -0.007 C 
ATOM     30  C   UNL     1       9.508  56.662  -6.781  1.00  0.00    +0.042 C 
ATOM     31  C   UNL     1      12.085  50.333  -4.548  1.00  0.00    +0.188 C 
ATOM     32  C   UNL     1      11.420  52.525  -4.656  1.00  0.00    -0.009 C 
ATOM     33  C   UNL     1      13.462  49.412  -2.555  1.00  0.00    -0.045 C 
ATOM     34  C   UNL     1      10.609  55.705  -6.350  1.00  0.00    -0.021 C 
ATOM     35  O   UNL     1      10.678  50.336  -4.192  1.00  0.00    -0.367 OA
ATOM     36  C   UNL     1      12.857  49.159  -3.915  1.00  0.00    +0.172 C 
ATOM     37  C   UNL     1      10.197  51.660  -4.528  1.00  0.00    +0.195 C 
ATOM     38  C   UNL     1      11.511  53.736  -5.231  1.00  0.00    +0.004 C 
ATOM     39  C   UNL     1      10.408  54.535  -5.719  1.00  0.00    -0.004 C 
ATOM     40  C   UNL     1      15.209  60.063   1.915  1.00  0.00    +0.010 C 
ATOM     41  C   UNL     1      10.900  60.084  -5.256  1.00  0.00    +0.042 C 
ATOM     42  C   UNL     1       9.052  56.280  -8.192  1.00  0.00    +0.015 C 
ATOM     43  C   UNL     1      14.184  48.254  -1.922  1.00  0.00    +0.042 C 
BRANCH  12  44
ATOM     44  C   UNL     1      15.622  59.544  -1.280  1.00  0.00    +0.015 C 
ATOM     45  C   UNL     1      16.351  58.439  -2.061  1.00  0.00    +0.010 C 
BRANCH  44  46
ATOM     46  C   UNL     1      15.006  60.522  -2.310  1.00  0.00    +0.002 C 
ATOM     47  C   UNL     1      13.579  60.945  -1.991  1.00  0.00    +0.004 C 
ENDBRANCH  44  46
ENDBRANCH  12  44
BRANCH  28  48
ATOM     48  O   UNL     1      13.804  52.027  -4.774  1.00  0.00    -0.381 OA
ATOM     49  H   UNL     1      13.979  52.978  -4.668  1.00  0.00    +0.212 HD
ENDBRANCH  28  48
BRANCH  36  50
ATOM     50  O   UNL     1      11.996  48.020  -3.835  1.00  0.00    -0.386 OA
ATOM     51  H   UNL     1      11.320  48.163  -4.526  1.00  0.00    +0.211 HD
ENDBRANCH  36  50
ENDBRANCH   8   9
ENDBRANCH   2   8
BRANCH   4  52
ATOM     52  O   UNL     1       8.806  60.081 -10.859  1.00  0.00    -0.378 OA
ATOM     53  C   UNL     1       7.409  60.178 -11.115  1.00  0.00    +0.195 C 
ENDBRANCH   4  52
BRANCH   3  54
ATOM     54  O   UNL     1      10.073  62.921 -10.446  1.00  0.00    -0.344 OA
BRANCH  54  55
ATOM     55  C   UNL     1       8.826  63.335  -9.879  1.00  0.00    +0.253 C 
ATOM     56  O   UNL     1       7.944  63.686 -10.943  1.00  0.00    -0.347 OA
ATOM     57  C   UNL     1       9.141  64.494  -8.934  1.00  0.00    +0.097 C 
ATOM     58  C   UNL     1       6.948  64.662 -10.640  1.00  0.00    +0.149 C 
ATOM     59  C   UNL     1       9.012  65.824  -9.659  1.00  0.00    +0.154 C 
ATOM     60  C   UNL     1       7.577  66.000 -10.195  1.00  0.00    +0.172 C 
ATOM     61  C   UNL     1       5.927  64.115  -9.644  1.00  0.00    +0.041 C 
BRANCH  59  62
ATOM     62  O   UNL     1       9.274  66.897  -8.735  1.00  0.00    -0.378 OA
ATOM     63  C   UNL     1      10.645  67.272  -8.706  1.00  0.00    +0.195 C 
ENDBRANCH  59  62
BRANCH  60  64
ATOM     64  O   UNL     1       7.646  66.901 -11.320  1.00  0.00    -0.388 OA
ATOM     65  H   UNL     1       6.736  67.137 -11.562  1.00  0.00    +0.211 HD
ENDBRANCH  60  64
ENDBRANCH  54  55
ENDBRANCH   3  54
TORSDOF 11
ENDMDL
MODEL 6
REMARK VINA RESULT:    -8.008      5.790     10.722
REMARK INTER + INTRA:         -12.872
REMARK INTER:                 -11.685
REMARK INTRA:                  -1.187
REMARK UNBOUND:                -0.418
REMARK SMILES CC[C@H](C)[C@H]1O[C@]2(CC[C@@H]1C)C[C@@H]1C[C@@H](C/C=C(\C)[C@@H](O[C@H]3C[C@H](OC)[C@@H](O[C@H]4C[C@H](OC)[C@@H](O)[C@H](C)O4)[C@H](C)O3)[C@@H](C)/C=C/C=C3\CO[C@@H]4[C@H](O)C(C)=C[C@@H](C(=O)O1)[C@]34O)O2
REMARK SMILES IDX 41 1 22 2 27 3 24 4 23 5 39 6 40 7 21 8 20 9 6 10 7 11 5 12
REMARK SMILES IDX 62 13 8 14 12 15 10 16 15 17 9 18 13 19 14 20 16 21 59 22
REMARK SMILES IDX 17 23 57 24 18 25 58 26 56 27 60 28 55 29 42 30 50 31 47 32
REMARK SMILES IDX 53 33 44 34 49 35 51 36 48 37 46 38 45 39 11 40 19 41 43 42
REMARK SMILES IDX 54 43 3 44 4 45 2 46 1 47 61 48 52 50 25 52 26 53 28 54
REMARK SMILES IDX 29 55 38 56 30 57 36 58 31 59 34 60 37 61 32 62 33 63 35 64
REMARK H PARENT 61 49 52 51 35 65
ROOT
ATOM      1  O   UNL     1       9.342  50.291  -5.131  1.00  0.00    -0.347 OA
ATOM      2  C   UNL     1      10.494  50.858  -4.510  1.00  0.00    +0.253 C 
ATOM      3  C   UNL     1       9.640  48.447  -3.523  1.00  0.00    +0.179 C 
ATOM      4  C   UNL     1      10.305  49.378  -2.484  1.00  0.00    +0.154 C 
ATOM      5  C   UNL     1      10.396  50.820  -2.986  1.00  0.00    +0.097 C 
ATOM      6  C   UNL     1       8.672  49.266  -4.391  1.00  0.00    +0.150 C 
ATOM      7  C   UNL     1       7.933  48.395  -5.404  1.00  0.00    +0.041 C 
ENDROOT
BRANCH   2   8
ATOM      8  O   UNL     1      10.589  52.228  -4.896  1.00  0.00    -0.344 OA
BRANCH   8   9
ATOM      9  C   UNL     1      11.484  52.506  -5.989  1.00  0.00    +0.153 C 
ATOM     10  O   UNL     1      14.184  58.034  -2.272  1.00  0.00    -0.346 OA
ATOM     11  C   UNL     1      14.867  58.322  -3.499  1.00  0.00    +0.172 C 
ATOM     12  C   UNL     1      15.056  57.707  -1.188  1.00  0.00    +0.127 C 
ATOM     13  O   UNL     1      15.171  57.115  -4.215  1.00  0.00    -0.346 OA
ATOM     14  C   UNL     1      16.212  59.038  -3.248  1.00  0.00    +0.066 C 
ATOM     15  C   UNL     1      13.945  59.219  -4.344  1.00  0.00    +0.111 C 
ATOM     16  C   UNL     1      15.819  58.986  -0.756  1.00  0.00    +0.015 C 
ATOM     17  C   UNL     1      14.018  56.331  -4.548  1.00  0.00    +0.129 C 
ATOM     18  C   UNL     1      16.168  59.865  -1.972  1.00  0.00    +0.011 C 
ATOM     19  C   UNL     1      12.684  58.463  -4.738  1.00  0.00    +0.184 C 
ATOM     20  C   UNL     1      13.068  57.153  -5.405  1.00  0.00    +0.078 C 
ATOM     21  C   UNL     1      14.492  55.058  -5.285  1.00  0.00    +0.059 C 
ATOM     22  O   UNL     1      11.933  59.179  -5.736  1.00  0.00    -0.462 OA
ATOM     23  C   UNL     1      13.351  54.252  -5.863  1.00  0.00    -0.023 C 
ATOM     24  C   UNL     1      10.956  60.035  -5.317  1.00  0.00    +0.316 C 
ATOM     25  C   UNL     1      12.738  53.160  -5.360  1.00  0.00    -0.048 C 
ATOM     26  O   UNL     1      10.800  60.403  -4.164  1.00  0.00    -0.251 OA
ATOM     27  C   UNL     1      10.125  60.443  -6.533  1.00  0.00    +0.161 C 
ATOM     28  C   UNL     1       8.949  59.454  -6.762  1.00  0.00    +0.134 C 
ATOM     29  C   UNL     1       9.690  61.887  -6.464  1.00  0.00    -0.007 C 
ATOM     30  C   UNL     1      10.734  53.315  -7.114  1.00  0.00    +0.042 C 
ATOM     31  C   UNL     1       8.060  59.940  -7.905  1.00  0.00    +0.188 C 
ATOM     32  C   UNL     1       9.407  58.157  -7.393  1.00  0.00    -0.009 C 
ATOM     33  C   UNL     1       8.566  62.334  -7.052  1.00  0.00    -0.045 C 
ATOM     34  C   UNL     1      10.141  54.622  -6.612  1.00  0.00    -0.021 C 
ATOM     35  O   UNL     1       8.845  59.685  -9.099  1.00  0.00    -0.367 OA
ATOM     36  C   UNL     1       7.621  61.413  -7.784  1.00  0.00    +0.172 C 
ATOM     37  C   UNL     1       9.483  58.404  -8.875  1.00  0.00    +0.195 C 
ATOM     38  C   UNL     1       9.593  56.994  -6.746  1.00  0.00    +0.004 C 
ATOM     39  C   UNL     1      10.059  55.755  -7.331  1.00  0.00    -0.004 C 
ATOM     40  C   UNL     1      17.076  58.629   0.043  1.00  0.00    +0.010 C 
ATOM     41  C   UNL     1      13.232  52.468  -4.110  1.00  0.00    +0.042 C 
ATOM     42  C   UNL     1       9.626  52.499  -7.785  1.00  0.00    +0.015 C 
ATOM     43  C   UNL     1       8.156  63.779  -6.966  1.00  0.00    +0.042 C 
BRANCH  12  44
ATOM     44  C   UNL     1      14.225  57.047  -0.054  1.00  0.00    +0.015 C 
ATOM     45  C   UNL     1      13.192  58.006   0.560  1.00  0.00    +0.010 C 
BRANCH  44  46
ATOM     46  C   UNL     1      13.469  55.783  -0.534  1.00  0.00    +0.002 C 
ATOM     47  C   UNL     1      12.003  56.023  -0.868  1.00  0.00    +0.004 C 
ENDBRANCH  44  46
ENDBRANCH  12  44
BRANCH  28  48
ATOM     48  O   UNL     1       8.176  59.239  -5.588  1.00  0.00    -0.381 OA
ATOM     49  H   UNL     1       8.152  58.284  -5.401  1.00  0.00    +0.212 HD
ENDBRANCH  28  48
BRANCH  36  50
ATOM     50  O   UNL     1       7.381  61.939  -9.092  1.00  0.00    -0.386 OA
ATOM     51  H   UNL     1       7.488  62.906  -9.000  1.00  0.00    +0.211 HD
ENDBRANCH  36  50
ENDBRANCH   8   9
ENDBRANCH   2   8
BRANCH   4  52
ATOM     52  O   UNL     1      11.627  48.865  -2.218  1.00  0.00    -0.378 OA
ATOM     53  C   UNL     1      12.477  49.816  -1.584  1.00  0.00    +0.195 C 
ENDBRANCH   4  52
BRANCH   3  54
ATOM     54  O   UNL     1       8.910  47.421  -2.833  1.00  0.00    -0.344 OA
BRANCH  54  55
ATOM     55  C   UNL     1       9.252  46.102  -3.273  1.00  0.00    +0.253 C 
ATOM     56  O   UNL     1       8.660  45.163  -2.377  1.00  0.00    -0.347 OA
ATOM     57  C   UNL     1      10.777  46.038  -3.312  1.00  0.00    +0.097 C 
ATOM     58  C   UNL     1       9.335  43.913  -2.239  1.00  0.00    +0.149 C 
ATOM     59  C   UNL     1      11.323  45.512  -1.995  1.00  0.00    +0.154 C 
ATOM     60  C   UNL     1      10.778  44.097  -1.720  1.00  0.00    +0.172 C 
ATOM     61  C   UNL     1       9.258  43.102  -3.531  1.00  0.00    +0.041 C 
BRANCH  59  62
ATOM     62  O   UNL     1      12.759  45.425  -2.076  1.00  0.00    -0.378 OA
ATOM     63  C   UNL     1      13.262  45.842  -3.339  1.00  0.00    +0.195 C 
ENDBRANCH  59  62
BRANCH  60  64
ATOM     64  O   UNL     1      10.807  43.895  -0.292  1.00  0.00    -0.388 OA
ATOM     65  H   UNL     1      11.137  44.713   0.113  1.00  0.00    +0.211 HD
ENDBRANCH  60  64
ENDBRANCH  54  55
ENDBRANCH   3  54
TORSDOF 11
ENDMDL
MODEL 7
REMARK VINA RESULT:    -7.922      5.918     10.473
REMARK INTER + INTRA:         -12.740
REMARK INTER:                 -10.722
REMARK INTRA:                  -2.017
REMARK UNBOUND:                -0.418
REMARK SMILES CC[C@H](C)[C@H]1O[C@]2(CC[C@@H]1C)C[C@@H]1C[C@@H](C/C=C(\C)[C@@H](O[C@H]3C[C@H](OC)[C@@H](O[C@H]4C[C@H](OC)[C@@H](O)[C@H](C)O4)[C@H](C)O3)[C@@H](C)/C=C/C=C3\CO[C@@H]4[C@H](O)C(C)=C[C@@H](C(=O)O1)[C@]34O)O2
REMARK SMILES IDX 41 1 22 2 27 3 24 4 23 5 39 6 40 7 21 8 20 9 6 10 7 11 5 12
REMARK SMILES IDX 62 13 8 14 12 15 10 16 15 17 9 18 13 19 14 20 16 21 59 22
REMARK SMILES IDX 17 23 57 24 18 25 58 26 56 27 60 28 55 29 42 30 50 31 47 32
REMARK SMILES IDX 53 33 44 34 49 35 51 36 48 37 46 38 45 39 11 40 19 41 43 42
REMARK SMILES IDX 54 43 3 44 4 45 2 46 1 47 61 48 52 50 25 52 26 53 28 54
REMARK SMILES IDX 29 55 38 56 30 57 36 58 31 59 34 60 37 61 32 62 33 63 35 64
REMARK H PARENT 61 49 52 51 35 65
ROOT
ATOM      1  O   UNL     1      11.939  54.144  -3.473  1.00  0.00    -0.347 OA
ATOM      2  C   UNL     1      11.126  54.640  -4.535  1.00  0.00    +0.253 C 
ATOM      3  C   UNL     1      11.691  51.958  -4.585  1.00  0.00    +0.179 C 
ATOM      4  C   UNL     1      11.521  52.615  -5.974  1.00  0.00    +0.154 C 
ATOM      5  C   UNL     1      11.602  54.140  -5.898  1.00  0.00    +0.097 C 
ATOM      6  C   UNL     1      12.550  52.869  -3.696  1.00  0.00    +0.150 C 
ATOM      7  C   UNL     1      12.809  52.253  -2.323  1.00  0.00    +0.041 C 
ENDROOT
BRANCH   2   8
ATOM      8  O   UNL     1      11.219  56.064  -4.549  1.00  0.00    -0.344 OA
BRANCH   8   9
ATOM      9  C   UNL     1      10.041  56.768  -4.115  1.00  0.00    +0.153 C 
ATOM     10  O   UNL     1      11.992  62.371  -8.172  1.00  0.00    -0.346 OA
ATOM     11  C   UNL     1      10.905  63.030  -7.510  1.00  0.00    +0.172 C 
ATOM     12  C   UNL     1      11.809  62.231  -9.583  1.00  0.00    +0.127 C 
ATOM     13  O   UNL     1       9.854  62.101  -7.198  1.00  0.00    -0.346 OA
ATOM     14  C   UNL     1      10.277  64.127  -8.397  1.00  0.00    +0.066 C 
ATOM     15  C   UNL     1      11.458  63.653  -6.216  1.00  0.00    +0.111 C 
ATOM     16  C   UNL     1      11.921  63.629 -10.245  1.00  0.00    +0.015 C 
ATOM     17  C   UNL     1      10.267  61.017  -6.357  1.00  0.00    +0.129 C 
ATOM     18  C   UNL     1      11.302  64.721  -9.351  1.00  0.00    +0.011 C 
ATOM     19  C   UNL     1      11.930  62.565  -5.262  1.00  0.00    +0.184 C 
ATOM     20  C   UNL     1      10.809  61.563  -5.045  1.00  0.00    +0.078 C 
ATOM     21  C   UNL     1       9.053  60.089  -6.128  1.00  0.00    +0.059 C 
ATOM     22  O   UNL     1      12.206  63.100  -3.953  1.00  0.00    -0.462 OA
ATOM     23  C   UNL     1       9.314  59.020  -5.092  1.00  0.00    -0.023 C 
ATOM     24  C   UNL     1      13.479  63.507  -3.678  1.00  0.00    +0.316 C 
ATOM     25  C   UNL     1       9.667  57.729  -5.270  1.00  0.00    -0.048 C 
ATOM     26  O   UNL     1      14.360  63.650  -4.512  1.00  0.00    -0.251 OA
ATOM     27  C   UNL     1      13.588  63.753  -2.174  1.00  0.00    +0.161 C 
ATOM     28  C   UNL     1      14.003  62.457  -1.425  1.00  0.00    +0.134 C 
ATOM     29  C   UNL     1      14.468  64.939  -1.856  1.00  0.00    -0.007 C 
ATOM     30  C   UNL     1      10.279  57.405  -2.694  1.00  0.00    +0.042 C 
ATOM     31  C   UNL     1      14.223  62.748   0.059  1.00  0.00    +0.188 C 
ATOM     32  C   UNL     1      12.850  61.488  -1.277  1.00  0.00    -0.009 C 
ATOM     33  C   UNL     1      15.155  65.042  -0.705  1.00  0.00    -0.045 C 
ATOM     34  C   UNL     1      11.468  58.354  -2.658  1.00  0.00    -0.021 C 
ATOM     35  O   UNL     1      12.884  62.931   0.587  1.00  0.00    -0.367 OA
ATOM     36  C   UNL     1      15.144  63.952   0.339  1.00  0.00    +0.172 C 
ATOM     37  C   UNL     1      12.068  61.931  -0.071  1.00  0.00    +0.195 C 
ATOM     38  C   UNL     1      12.651  60.388  -2.024  1.00  0.00    +0.004 C 
ATOM     39  C   UNL     1      11.538  59.470  -1.913  1.00  0.00    -0.004 C 
ATOM     40  C   UNL     1      11.280  63.629 -11.635  1.00  0.00    +0.010 C 
ATOM     41  C   UNL     1       9.732  57.098  -6.642  1.00  0.00    +0.042 C 
ATOM     42  C   UNL     1      10.462  56.349  -1.601  1.00  0.00    +0.015 C 
ATOM     43  C   UNL     1      16.026  66.233  -0.414  1.00  0.00    +0.042 C 
BRANCH  12  44
ATOM     44  C   UNL     1      12.826  61.187 -10.121  1.00  0.00    +0.015 C 
ATOM     45  C   UNL     1      14.278  61.689 -10.065  1.00  0.00    +0.010 C 
BRANCH  44  46
ATOM     46  C   UNL     1      12.761  59.845  -9.351  1.00  0.00    +0.002 C 
ATOM     47  C   UNL     1      11.398  59.167  -9.395  1.00  0.00    +0.004 C 
ENDBRANCH  44  46
ENDBRANCH  12  44
BRANCH  28  48
ATOM     48  O   UNL     1      15.155  61.843  -1.987  1.00  0.00    -0.381 OA
ATOM     49  H   UNL     1      15.206  62.079  -2.930  1.00  0.00    +0.212 HD
ENDBRANCH  28  48
BRANCH  36  50
ATOM     50  O   UNL     1      14.796  64.524   1.602  1.00  0.00    -0.386 OA
ATOM     51  H   UNL     1      15.636  64.866   1.966  1.00  0.00    +0.211 HD
ENDBRANCH  36  50
ENDBRANCH   8   9
ENDBRANCH   2   8
BRANCH   4  52
ATOM     52  O   UNL     1      10.235  52.215  -6.493  1.00  0.00    -0.378 OA
ATOM     53  C   UNL     1      10.332  51.406  -7.661  1.00  0.00    +0.195 C 
ENDBRANCH   4  52
BRANCH   3  54
ATOM     54  O   UNL     1      12.346  50.690  -4.743  1.00  0.00    -0.344 OA
BRANCH  54  55
ATOM     55  C   UNL     1      11.466  49.579  -4.545  1.00  0.00    +0.253 C 
ATOM     56  O   UNL     1      10.304  50.043  -3.861  1.00  0.00    -0.347 OA
ATOM     57  C   UNL     1      12.259  48.529  -3.769  1.00  0.00    +0.097 C 
ATOM     58  C   UNL     1       9.630  49.087  -3.044  1.00  0.00    +0.149 C 
ATOM     59  C   UNL     1      12.043  48.695  -2.274  1.00  0.00    +0.154 C 
ATOM     60  C   UNL     1      10.549  48.537  -1.931  1.00  0.00    +0.172 C 
ATOM     61  C   UNL     1       8.992  47.990  -3.895  1.00  0.00    +0.041 C 
BRANCH  59  62
ATOM     62  O   UNL     1      12.769  47.668  -1.572  1.00  0.00    -0.378 OA
ATOM     63  C   UNL     1      14.102  48.054  -1.260  1.00  0.00    +0.195 C 
ENDBRANCH  59  62
BRANCH  60  64
ATOM     64  O   UNL     1      10.310  49.260  -0.706  1.00  0.00    -0.388 OA
ATOM     65  H   UNL     1       9.582  49.881  -0.869  1.00  0.00    +0.211 HD
ENDBRANCH  60  64
ENDBRANCH  54  55
ENDBRANCH   3  54
TORSDOF 11
ENDMDL
MODEL 8
REMARK VINA RESULT:    -7.885      6.324     11.025
REMARK INTER + INTRA:         -12.682
REMARK INTER:                 -10.709
REMARK INTRA:                  -1.973
REMARK UNBOUND:                -0.418
REMARK SMILES CC[C@H](C)[C@H]1O[C@]2(CC[C@@H]1C)C[C@@H]1C[C@@H](C/C=C(\C)[C@@H](O[C@H]3C[C@H](OC)[C@@H](O[C@H]4C[C@H](OC)[C@@H](O)[C@H](C)O4)[C@H](C)O3)[C@@H](C)/C=C/C=C3\CO[C@@H]4[C@H](O)C(C)=C[C@@H](C(=O)O1)[C@]34O)O2
REMARK SMILES IDX 41 1 22 2 27 3 24 4 23 5 39 6 40 7 21 8 20 9 6 10 7 11 5 12
REMARK SMILES IDX 62 13 8 14 12 15 10 16 15 17 9 18 13 19 14 20 16 21 59 22
REMARK SMILES IDX 17 23 57 24 18 25 58 26 56 27 60 28 55 29 42 30 50 31 47 32
REMARK SMILES IDX 53 33 44 34 49 35 51 36 48 37 46 38 45 39 11 40 19 41 43 42
REMARK SMILES IDX 54 43 3 44 4 45 2 46 1 47 61 48 52 50 25 52 26 53 28 54
REMARK SMILES IDX 29 55 38 56 30 57 36 58 31 59 34 60 37 61 32 62 33 63 35 64
REMARK H PARENT 61 49 52 51 35 65
ROOT
ATOM      1  O   UNL     1      12.093  52.637  -3.082  1.00  0.00    -0.347 OA
ATOM      2  C   UNL     1      12.958  53.235  -4.046  1.00  0.00    +0.253 C 
ATOM      3  C   UNL     1      13.650  50.728  -3.176  1.00  0.00    +0.179 C 
ATOM      4  C   UNL     1      14.840  51.639  -3.556  1.00  0.00    +0.154 C 
ATOM      5  C   UNL     1      14.428  53.108  -3.648  1.00  0.00    +0.097 C 
ATOM      6  C   UNL     1      12.639  51.536  -2.349  1.00  0.00    +0.150 C 
ATOM      7  C   UNL     1      11.460  50.680  -1.888  1.00  0.00    +0.041 C 
ENDROOT
BRANCH   2   8
ATOM      8  O   UNL     1      12.657  54.628  -4.123  1.00  0.00    -0.344 OA
BRANCH   8   9
ATOM      9  C   UNL     1      11.754  55.125  -3.120  1.00  0.00    +0.153 C 
ATOM     10  O   UNL     1       9.377  60.033  -7.802  1.00  0.00    -0.346 OA
ATOM     11  C   UNL     1       8.683  60.556  -6.662  1.00  0.00    +0.172 C 
ATOM     12  C   UNL     1       8.513  59.559  -8.838  1.00  0.00    +0.127 C 
ATOM     13  O   UNL     1       8.311  59.503  -5.758  1.00  0.00    -0.346 OA
ATOM     14  C   UNL     1       7.376  61.270  -7.070  1.00  0.00    +0.066 C 
ATOM     15  C   UNL     1       9.626  61.547  -5.959  1.00  0.00    +0.111 C 
ATOM     16  C   UNL     1       7.816  60.774  -9.504  1.00  0.00    +0.015 C 
ATOM     17  C   UNL     1       9.421  58.743  -5.265  1.00  0.00    +0.129 C 
ATOM     18  C   UNL     1       7.482  61.863  -8.467  1.00  0.00    +0.011 C 
ATOM     19  C   UNL     1      10.844  60.820  -5.406  1.00  0.00    +0.184 C 
ATOM     20  C   UNL     1      10.389  59.662  -4.536  1.00  0.00    +0.078 C 
ATOM     21  C   UNL     1       8.876  57.636  -4.334  1.00  0.00    +0.059 C 
ATOM     22  O   UNL     1      11.606  61.668  -4.525  1.00  0.00    -0.462 OA
ATOM     23  C   UNL     1       9.968  56.897  -3.594  1.00  0.00    -0.023 C 
ATOM     24  C   UNL     1      12.628  62.399  -5.058  1.00  0.00    +0.316 C 
ATOM     25  C   UNL     1      10.542  55.710  -3.886  1.00  0.00    -0.048 C 
ATOM     26  O   UNL     1      12.824  62.555  -6.253  1.00  0.00    -0.251 OA
ATOM     27  C   UNL     1      13.452  62.976  -3.908  1.00  0.00    +0.161 C 
ATOM     28  C   UNL     1      14.578  61.995  -3.480  1.00  0.00    +0.134 C 
ATOM     29  C   UNL     1      13.951  64.368  -4.211  1.00  0.00    -0.007 C 
ATOM     30  C   UNL     1      12.515  56.085  -2.129  1.00  0.00    +0.042 C 
ATOM     31  C   UNL     1      15.464  62.635  -2.413  1.00  0.00    +0.188 C 
ATOM     32  C   UNL     1      14.050  60.846  -2.648  1.00  0.00    -0.009 C 
ATOM     33  C   UNL     1      15.082  64.864  -3.678  1.00  0.00    -0.045 C 
ATOM     34  C   UNL     1      13.176  57.262  -2.831  1.00  0.00    -0.021 C 
ATOM     35  O   UNL     1      14.645  62.621  -1.216  1.00  0.00    -0.367 OA
ATOM     36  C   UNL     1      15.970  64.046  -2.772  1.00  0.00    +0.172 C 
ATOM     37  C   UNL     1      13.955  61.348  -1.234  1.00  0.00    +0.195 C 
ATOM     38  C   UNL     1      13.826  59.597  -3.092  1.00  0.00    +0.004 C 
ATOM     39  C   UNL     1      13.294  58.498  -2.316  1.00  0.00    -0.004 C 
ATOM     40  C   UNL     1       6.561  60.336 -10.264  1.00  0.00    +0.010 C 
ATOM     41  C   UNL     1      10.044  54.834  -5.012  1.00  0.00    +0.042 C 
ATOM     42  C   UNL     1      13.572  55.353  -1.298  1.00  0.00    +0.015 C 
ATOM     43  C   UNL     1      15.558  66.255  -3.999  1.00  0.00    +0.042 C 
BRANCH  12  44
ATOM     44  C   UNL     1       9.337  58.680  -9.819  1.00  0.00    +0.015 C 
ATOM     45  C   UNL     1      10.854  58.864  -9.649  1.00  0.00    +0.010 C 
BRANCH  44  46
ATOM     46  C   UNL     1       9.025  57.171  -9.666  1.00  0.00    +0.002 C 
ATOM     47  C   UNL     1       9.359  56.601  -8.294  1.00  0.00    +0.004 C 
ENDBRANCH  44  46
ENDBRANCH  12  44
BRANCH  28  48
ATOM     48  O   UNL     1      15.364  61.549  -4.578  1.00  0.00    -0.381 OA
ATOM     49  H   UNL     1      14.912  60.798  -5.001  1.00  0.00    +0.212 HD
ENDBRANCH  28  48
BRANCH  36  50
ATOM     50  O   UNL     1      16.207  64.780  -1.569  1.00  0.00    -0.386 OA
ATOM     51  H   UNL     1      17.137  65.072  -1.628  1.00  0.00    +0.211 HD
ENDBRANCH  36  50
ENDBRANCH   8   9
ENDBRANCH   2   8
BRANCH   4  52
ATOM     52  O   UNL     1      15.348  51.189  -4.829  1.00  0.00    -0.378 OA
ATOM     53  C   UNL     1      16.443  51.967  -5.300  1.00  0.00    +0.195 C 
ENDBRANCH   4  52
BRANCH   3  54
ATOM     54  O   UNL     1      14.133  49.625  -2.395  1.00  0.00    -0.344 OA
BRANCH  54  55
ATOM     55  C   UNL     1      14.197  48.403  -3.135  1.00  0.00    +0.253 C 
ATOM     56  O   UNL     1      13.303  48.501  -4.242  1.00  0.00    -0.347 OA
ATOM     57  C   UNL     1      13.845  47.283  -2.157  1.00  0.00    +0.097 C 
ATOM     58  C   UNL     1      12.751  47.274  -4.717  1.00  0.00    +0.149 C 
ATOM     59  C   UNL     1      12.354  46.986  -2.201  1.00  0.00    +0.154 C 
ATOM     60  C   UNL     1      11.941  46.549  -3.620  1.00  0.00    +0.172 C 
ATOM     61  C   UNL     1      13.829  46.395  -5.349  1.00  0.00    +0.041 C 
BRANCH  59  62
ATOM     62  O   UNL     1      12.059  45.901  -1.300  1.00  0.00    -0.378 OA
ATOM     63  C   UNL     1      10.927  46.163  -0.480  1.00  0.00    +0.195 C 
ENDBRANCH  59  62
BRANCH  60  64
ATOM     64  O   UNL     1      10.539  46.856  -3.772  1.00  0.00    -0.388 OA
ATOM     65  H   UNL     1      10.353  46.909  -4.724  1.00  0.00    +0.211 HD
ENDBRANCH  60  64
ENDBRANCH  54  55
ENDBRANCH   3  54
TORSDOF 11
ENDMDL
MODEL 9
REMARK VINA RESULT:    -7.763      3.360     12.766
REMARK INTER + INTRA:         -12.492
REMARK INTER:                 -10.678
REMARK INTRA:                  -1.814
REMARK UNBOUND:                -0.418
REMARK SMILES CC[C@H](C)[C@H]1O[C@]2(CC[C@@H]1C)C[C@@H]1C[C@@H](C/C=C(\C)[C@@H](O[C@H]3C[C@H](OC)[C@@H](O[C@H]4C[C@H](OC)[C@@H](O)[C@H](C)O4)[C@H](C)O3)[C@@H](C)/C=C/C=C3\CO[C@@H]4[C@H](O)C(C)=C[C@@H](C(=O)O1)[C@]34O)O2
REMARK SMILES IDX 41 1 22 2 27 3 24 4 23 5 39 6 40 7 21 8 20 9 6 10 7 11 5 12
REMARK SMILES IDX 62 13 8 14 12 15 10 16 15 17 9 18 13 19 14 20 16 21 59 22
REMARK SMILES IDX 17 23 57 24 18 25 58 26 56 27 60 28 55 29 42 30 50 31 47 32
REMARK SMILES IDX 53 33 44 34 49 35 51 36 48 37 46 38 45 39 11 40 19 41 43 42
REMARK SMILES IDX 54 43 3 44 4 45 2 46 1 47 61 48 52 50 25 52 26 53 28 54
REMARK SMILES IDX 29 55 38 56 30 57 36 58 31 59 34 60 37 61 32 62 33 63 35 64
REMARK H PARENT 61 49 52 51 35 65
ROOT
ATOM      1  O   UNL     1      14.774  58.768   6.347  1.00  0.00    -0.347 OA
ATOM      2  C   UNL     1      13.856  59.722   5.817  1.00  0.00    +0.253 C 
ATOM      3  C   UNL     1      13.725  59.275   8.519  1.00  0.00    +0.179 C 
ATOM      4  C   UNL     1      12.380  59.643   7.853  1.00  0.00    +0.154 C 
ATOM      5  C   UNL     1      12.436  59.493   6.332  1.00  0.00    +0.097 C 
ATOM      6  C   UNL     1      14.460  58.249   7.643  1.00  0.00    +0.150 C 
ATOM      7  C   UNL     1      15.775  57.795   8.272  1.00  0.00    +0.041 C 
ENDROOT
BRANCH   2   8
ATOM      8  O   UNL     1      13.823  59.580   4.398  1.00  0.00    -0.344 OA
BRANCH   8   9
ATOM      9  C   UNL     1      14.950  58.902   3.814  1.00  0.00    +0.153 C 
ATOM     10  O   UNL     1      14.748  63.491  -1.714  1.00  0.00    -0.346 OA
ATOM     11  C   UNL     1      15.729  62.610  -2.278  1.00  0.00    +0.172 C 
ATOM     12  C   UNL     1      15.234  64.811  -1.463  1.00  0.00    +0.127 C 
ATOM     13  O   UNL     1      16.548  62.027  -1.251  1.00  0.00    -0.346 OA
ATOM     14  C   UNL     1      16.684  63.358  -3.233  1.00  0.00    +0.066 C 
ATOM     15  C   UNL     1      14.978  61.508  -3.044  1.00  0.00    +0.111 C 
ATOM     16  C   UNL     1      15.463  65.527  -2.819  1.00  0.00    +0.015 C 
ATOM     17  C   UNL     1      15.812  61.273  -0.280  1.00  0.00    +0.129 C 
ATOM     18  C   UNL     1      15.995  64.549  -3.884  1.00  0.00    +0.011 C 
ATOM     19  C   UNL     1      14.158  60.657  -2.083  1.00  0.00    +0.184 C 
ATOM     20  C   UNL     1      15.056  60.146  -0.970  1.00  0.00    +0.078 C 
ATOM     21  C   UNL     1      16.806  60.731   0.770  1.00  0.00    +0.059 C 
ATOM     22  O   UNL     1      13.659  59.471  -2.729  1.00  0.00    -0.462 OA
ATOM     23  C   UNL     1      16.173  59.752   1.733  1.00  0.00    -0.023 C 
ATOM     24  C   UNL     1      12.422  59.521  -3.302  1.00  0.00    +0.316 C 
ATOM     25  C   UNL     1      15.705  59.966   2.981  1.00  0.00    -0.048 C 
ATOM     26  O   UNL     1      11.785  60.544  -3.496  1.00  0.00    -0.251 OA
ATOM     27  C   UNL     1      12.000  58.095  -3.655  1.00  0.00    +0.161 C 
ATOM     28  C   UNL     1      11.256  57.424  -2.468  1.00  0.00    +0.134 C 
ATOM     29  C   UNL     1      11.234  58.035  -4.955  1.00  0.00    -0.007 C 
ATOM     30  C   UNL     1      14.474  57.600   3.065  1.00  0.00    +0.042 C 
ATOM     31  C   UNL     1      10.738  56.045  -2.876  1.00  0.00    +0.188 C 
ATOM     32  C   UNL     1      12.205  56.973  -1.378  1.00  0.00    -0.009 C 
ATOM     33  C   UNL     1      10.318  57.085  -5.212  1.00  0.00    -0.045 C 
ATOM     34  C   UNL     1      13.445  57.880   1.980  1.00  0.00    -0.021 C 
ATOM     35  O   UNL     1      11.930  55.220  -2.931  1.00  0.00    -0.367 OA
ATOM     36  C   UNL     1       9.944  56.033  -4.197  1.00  0.00    +0.172 C 
ATOM     37  C   UNL     1      12.737  55.631  -1.800  1.00  0.00    +0.195 C 
ATOM     38  C   UNL     1      12.426  57.614  -0.218  1.00  0.00    +0.004 C 
ATOM     39  C   UNL     1      13.352  57.211   0.818  1.00  0.00    -0.004 C 
ATOM     40  C   UNL     1      16.403  66.724  -2.655  1.00  0.00    +0.010 C 
ATOM     41  C   UNL     1      15.877  61.292   3.685  1.00  0.00    +0.042 C 
ATOM     42  C   UNL     1      13.906  56.547   4.020  1.00  0.00    +0.015 C 
ATOM     43  C   UNL     1       9.569  57.050  -6.516  1.00  0.00    +0.042 C 
BRANCH  12  44
ATOM     44  C   UNL     1      14.241  65.542  -0.517  1.00  0.00    +0.015 C 
ATOM     45  C   UNL     1      13.052  64.658  -0.106  1.00  0.00    +0.010 C 
BRANCH  44  46
ATOM     46  C   UNL     1      14.922  66.048   0.778  1.00  0.00    +0.002 C 
ATOM     47  C   UNL     1      14.917  65.040   1.920  1.00  0.00    +0.004 C 
ENDBRANCH  44  46
ENDBRANCH  12  44
BRANCH  28  48
ATOM     48  O   UNL     1      10.195  58.223  -1.962  1.00  0.00    -0.381 OA
ATOM     49  H   UNL     1       9.799  57.769  -1.197  1.00  0.00    +0.212 HD
ENDBRANCH  28  48
BRANCH  36  50
ATOM     50  O   UNL     1      10.061  54.743  -4.803  1.00  0.00    -0.386 OA
ATOM     51  H   UNL     1      10.431  54.167  -4.105  1.00  0.00    +0.211 HD
ENDBRANCH  36  50
ENDBRANCH   8   9
ENDBRANCH   2   8
BRANCH   4  52
ATOM     52  O   UNL     1      12.077  61.009   8.202  1.00  0.00    -0.378 OA
ATOM     53  C   UNL     1      11.174  61.631   7.293  1.00  0.00    +0.195 C 
ENDBRANCH   4  52
BRANCH   3  54
ATOM     54  O   UNL     1      13.468  58.702   9.810  1.00  0.00    -0.344 OA
BRANCH  54  55
ATOM     55  C   UNL     1      13.946  59.515  10.887  1.00  0.00    +0.253 C 
ATOM     56  O   UNL     1      14.871  60.462  10.357  1.00  0.00    -0.347 OA
ATOM     57  C   UNL     1      14.558  58.564  11.912  1.00  0.00    +0.097 C 
ATOM     58  C   UNL     1      15.887  60.919  11.250  1.00  0.00    +0.149 C 
ATOM     59  C   UNL     1      16.048  58.393  11.659  1.00  0.00    +0.154 C 
ATOM     60  C   UNL     1      16.763  59.754  11.761  1.00  0.00    +0.172 C 
ATOM     61  C   UNL     1      15.289  61.762  12.375  1.00  0.00    +0.041 C 
BRANCH  59  62
ATOM     62  O   UNL     1      16.604  57.524  12.664  1.00  0.00    -0.378 OA
ATOM     63  C   UNL     1      17.247  56.384  12.108  1.00  0.00    +0.195 C 
ENDBRANCH  59  62
BRANCH  60  64
ATOM     64  O   UNL     1      17.964  59.669  10.966  1.00  0.00    -0.388 OA
ATOM     65  H   UNL     1      18.513  58.961  11.340  1.00  0.00    +0.211 HD
ENDBRANCH  60  64
ENDBRANCH  54  55
ENDBRANCH   3  54
TORSDOF 11
ENDMDL
