MODEL 1
REMARK VINA RESULT:    -7.398      0.000      0.000
REMARK INTER + INTRA:         -13.202
REMARK INTER:                 -11.506
REMARK INTRA:                  -1.695
REMARK UNBOUND:                -1.695
REMARK SMILES CC[C@H](C)[C@H]1O[C@]2(CC[C@@H]1C)C[C@@H]1C[C@@H](C/C=C(\C)[C@@H](O[C@H]3C[C@H](OC)[C@@H](O[C@H]4C[C@H](OC)[C@@H](O)[C@H](C)O4)[C@H](C)O3)[C@@H](C)/C=C/C=C3\CO[C@@H]4[C@H](O)C(C)=C[C@@H](C(=O)O1)[C@]34O)O2
REMARK SMILES IDX 41 1 22 2 27 3 24 4 23 5 39 6 40 7 21 8 20 9 6 10 7 11 5 12
REMARK SMILES IDX 62 13 8 14 12 15 10 16 15 17 9 18 13 19 14 20 16 21 59 22
REMARK SMILES IDX 17 23 57 24 18 25 58 26 56 27 60 28 55 29 42 30 50 31 47 32
REMARK SMILES IDX 53 33 44 34 49 35 51 36 48 37 46 38 45 39 11 40 19 41 43 42
REMARK SMILES IDX 54 43 3 44 4 45 2 46 1 47 61 48 52 50 25 52 26 53 28 54
REMARK SMILES IDX 29 55 38 56 30 57 36 58 31 59 34 60 37 61 32 62 33 63 35 64
REMARK H PARENT 61 49 52 51 35 65
ROOT
ATOM      1  O   UNL     1       1.658  16.649   0.868  1.00  0.00    -0.347 OA
ATOM      2  C   UNL     1       2.746  17.460   1.307  1.00  0.00    +0.253 C 
ATOM      3  C   UNL     1       3.405  15.091   0.094  1.00  0.00    +0.179 C 
ATOM      4  C   UNL     1       4.395  15.564   1.184  1.00  0.00    +0.154 C 
ATOM      5  C   UNL     1       3.788  16.648   2.075  1.00  0.00    +0.097 C 
ATOM      6  C   UNL     1       1.967  15.277   0.603  1.00  0.00    +0.150 C 
ATOM      7  C   UNL     1       0.934  14.773  -0.403  1.00  0.00    +0.041 C 
ENDROOT
BRANCH   2   8
ATOM      8  O   UNL     1       2.239  18.453   2.198  1.00  0.00    -0.344 OA
BRANCH   8   9
ATOM      9  C   UNL     1       1.507  19.527   1.582  1.00  0.00    +0.153 C 
ATOM     10  O   UNL     1      -2.986  14.708  -1.291  1.00  0.00    -0.346 OA
ATOM     11  C   UNL     1      -3.496  15.841  -2.005  1.00  0.00    +0.172 C 
ATOM     12  C   UNL     1      -3.933  14.111  -0.402  1.00  0.00    +0.127 C 
ATOM     13  O   UNL     1      -3.387  17.038  -1.217  1.00  0.00    -0.346 OA
ATOM     14  C   UNL     1      -4.991  15.673  -2.349  1.00  0.00    +0.066 C 
ATOM     15  C   UNL     1      -2.673  15.984  -3.298  1.00  0.00    +0.111 C 
ATOM     16  C   UNL     1      -5.032  13.407  -1.240  1.00  0.00    +0.015 C 
ATOM     17  C   UNL     1      -2.046  17.354  -0.824  1.00  0.00    +0.129 C 
ATOM     18  C   UNL     1      -5.359  14.206  -2.516  1.00  0.00    +0.011 C 
ATOM     19  C   UNL     1      -1.223  16.315  -2.971  1.00  0.00    +0.184 C 
ATOM     20  C   UNL     1      -1.176  17.530  -2.060  1.00  0.00    +0.078 C 
ATOM     21  C   UNL     1      -2.082  18.638   0.034  1.00  0.00    +0.059 C 
ATOM     22  O   UNL     1      -0.497  16.710  -4.150  1.00  0.00    -0.462 OA
ATOM     23  C   UNL     1      -0.705  19.183   0.339  1.00  0.00    -0.023 C 
ATOM     24  C   UNL     1       0.171  15.746  -4.848  1.00  0.00    +0.316 C 
ATOM     25  C   UNL     1       0.047  19.029   1.450  1.00  0.00    -0.048 C 
ATOM     26  O   UNL     1       0.038  14.544  -4.678  1.00  0.00    -0.251 OA
ATOM     27  C   UNL     1       1.083  16.435  -5.862  1.00  0.00    +0.161 C 
ATOM     28  C   UNL     1       2.476  16.739  -5.243  1.00  0.00    +0.134 C 
ATOM     29  C   UNL     1       1.157  15.677  -7.165  1.00  0.00    -0.007 C 
ATOM     30  C   UNL     1       2.233  19.995   0.264  1.00  0.00    +0.042 C 
ATOM     31  C   UNL     1       3.413  17.318  -6.302  1.00  0.00    +0.188 C 
ATOM     32  C   UNL     1       2.443  17.936  -4.318  1.00  0.00    -0.009 C 
ATOM     33  C   UNL     1       2.232  15.726  -7.972  1.00  0.00    -0.045 C 
ATOM     34  C   UNL     1       2.415  18.873  -0.746  1.00  0.00    -0.021 C 
ATOM     35  O   UNL     1       2.924  18.669  -6.507  1.00  0.00    -0.367 OA
ATOM     36  C   UNL     1       3.475  16.502  -7.608  1.00  0.00    +0.172 C 
ATOM     37  C   UNL     1       2.568  19.155  -5.190  1.00  0.00    +0.195 C 
ATOM     38  C   UNL     1       2.420  17.887  -2.976  1.00  0.00    +0.004 C 
ATOM     39  C   UNL     1       2.358  19.023  -2.081  1.00  0.00    -0.004 C 
ATOM     40  C   UNL     1      -6.292  13.170  -0.402  1.00  0.00    +0.010 C 
ATOM     41  C   UNL     1      -0.483  18.338   2.685  1.00  0.00    +0.042 C 
ATOM     42  C   UNL     1       3.596  20.633   0.541  1.00  0.00    +0.015 C 
ATOM     43  C   UNL     1       2.280  14.960  -9.265  1.00  0.00    +0.042 C 
BRANCH  12  44
ATOM     44  C   UNL     1      -3.180  13.172   0.580  1.00  0.00    +0.015 C 
ATOM     45  C   UNL     1      -2.519  11.979  -0.129  1.00  0.00    +0.010 C 
BRANCH  44  46
ATOM     46  C   UNL     1      -2.082  13.913   1.382  1.00  0.00    +0.002 C 
ATOM     47  C   UNL     1      -2.583  15.129   2.148  1.00  0.00    +0.004 C 
ENDBRANCH  44  46
ENDBRANCH  12  44
BRANCH  28  48
ATOM     48  O   UNL     1       3.063  15.599  -4.629  1.00  0.00    -0.381 OA
ATOM     49  H   UNL     1       2.376  15.124  -4.130  1.00  0.00    +0.212 HD
ENDBRANCH  28  48
BRANCH  36  50
ATOM     50  O   UNL     1       3.809  17.375  -8.691  1.00  0.00    -0.386 OA
ATOM     51  H   UNL     1       4.755  17.206  -8.870  1.00  0.00    +0.211 HD
ENDBRANCH  36  50
ENDBRANCH   8   9
ENDBRANCH   2   8
BRANCH   4  52
ATOM     52  O   UNL     1       5.568  16.075   0.517  1.00  0.00    -0.378 OA
ATOM     53  C   UNL     1       6.773  15.814   1.231  1.00  0.00    +0.195 C 
ENDBRANCH   4  52
BRANCH   3  54
ATOM     54  O   UNL     1       3.638  13.701  -0.179  1.00  0.00    -0.344 OA
BRANCH  54  55
ATOM     55  C   UNL     1       4.305  13.483  -1.426  1.00  0.00    +0.253 C 
ATOM     56  O   UNL     1       3.568  12.511  -2.165  1.00  0.00    -0.347 OA
ATOM     57  C   UNL     1       5.730  13.047  -1.088  1.00  0.00    +0.097 C 
ATOM     58  C   UNL     1       4.317  11.715  -3.082  1.00  0.00    +0.149 C 
ATOM     59  C   UNL     1       5.820  11.531  -1.014  1.00  0.00    +0.154 C 
ATOM     60  C   UNL     1       5.423  10.909  -2.367  1.00  0.00    +0.172 C 
ATOM     61  C   UNL     1       4.841  12.560  -4.242  1.00  0.00    +0.041 C 
BRANCH  59  62
ATOM     62  O   UNL     1       7.181  11.149  -0.734  1.00  0.00    -0.378 OA
ATOM     63  C   UNL     1       8.092  12.234  -0.863  1.00  0.00    +0.195 C 
ENDBRANCH  59  62
BRANCH  60  64
ATOM     64  O   UNL     1       4.953   9.571  -2.103  1.00  0.00    -0.388 OA
ATOM     65  H   UNL     1       5.365   9.273  -1.276  1.00  0.00    +0.211 HD
ENDBRANCH  60  64
ENDBRANCH  54  55
ENDBRANCH   3  54
TORSDOF 11
ENDMDL
MODEL 2
REMARK VINA RESULT:    -7.037      3.079      8.289
REMARK INTER + INTRA:         -12.641
REMARK INTER:                 -10.444
REMARK INTRA:                  -2.197
REMARK UNBOUND:                -1.695
REMARK SMILES CC[C@H](C)[C@H]1O[C@]2(CC[C@@H]1C)C[C@@H]1C[C@@H](C/C=C(\C)[C@@H](O[C@H]3C[C@H](OC)[C@@H](O[C@H]4C[C@H](OC)[C@@H](O)[C@H](C)O4)[C@H](C)O3)[C@@H](C)/C=C/C=C3\CO[C@@H]4[C@H](O)C(C)=C[C@@H](C(=O)O1)[C@]34O)O2
REMARK SMILES IDX 41 1 22 2 27 3 24 4 23 5 39 6 40 7 21 8 20 9 6 10 7 11 5 12
REMARK SMILES IDX 62 13 8 14 12 15 10 16 15 17 9 18 13 19 14 20 16 21 59 22
REMARK SMILES IDX 17 23 57 24 18 25 58 26 56 27 60 28 55 29 42 30 50 31 47 32
REMARK SMILES IDX 53 33 44 34 49 35 51 36 48 37 46 38 45 39 11 40 19 41 43 42
REMARK SMILES IDX 54 43 3 44 4 45 2 46 1 47 61 48 52 50 25 52 26 53 28 54
REMARK SMILES IDX 29 55 38 56 30 57 36 58 31 59 34 60 37 61 32 62 33 63 35 64
REMARK H PARENT 61 49 52 51 35 65
ROOT
ATOM      1  O   UNL     1      -0.090  13.872  -3.499  1.00  0.00    -0.347 OA
ATOM      2  C   UNL     1      -0.557  12.966  -2.501  1.00  0.00    +0.253 C 
ATOM      3  C   UNL     1       1.376  14.747  -1.720  1.00  0.00    +0.179 C 
ATOM      4  C   UNL     1       1.417  13.382  -0.997  1.00  0.00    +0.154 C 
ATOM      5  C   UNL     1       0.595  12.322  -1.732  1.00  0.00    +0.097 C 
ATOM      6  C   UNL     1       1.158  14.517  -3.223  1.00  0.00    +0.150 C 
ATOM      7  C   UNL     1       1.165  15.826  -4.011  1.00  0.00    +0.041 C 
ENDROOT
BRANCH   2   8
ATOM      8  O   UNL     1      -1.279  11.916  -3.144  1.00  0.00    -0.344 OA
BRANCH   8   9
ATOM      9  C   UNL     1      -2.696  11.893  -2.895  1.00  0.00    +0.153 C 
ATOM     10  O   UNL     1      -2.839  19.055  -3.486  1.00  0.00    -0.346 OA
ATOM     11  C   UNL     1      -4.189  18.909  -3.030  1.00  0.00    +0.172 C 
ATOM     12  C   UNL     1      -2.730  19.587  -4.808  1.00  0.00    +0.127 C 
ATOM     13  O   UNL     1      -4.757  17.671  -3.487  1.00  0.00    -0.346 OA
ATOM     14  C   UNL     1      -5.097  20.036  -3.567  1.00  0.00    +0.066 C 
ATOM     15  C   UNL     1      -4.166  18.943  -1.492  1.00  0.00    +0.111 C 
ATOM     16  C   UNL     1      -3.149  21.080  -4.784  1.00  0.00    +0.015 C 
ATOM     17  C   UNL     1      -4.038  16.509  -3.056  1.00  0.00    +0.129 C 
ATOM     18  C   UNL     1      -4.310  21.317  -3.800  1.00  0.00    +0.011 C 
ATOM     19  C   UNL     1      -3.410  17.739  -0.946  1.00  0.00    +0.184 C 
ATOM     20  C   UNL     1      -3.992  16.467  -1.536  1.00  0.00    +0.078 C 
ATOM     21  C   UNL     1      -4.737  15.260  -3.639  1.00  0.00    +0.059 C 
ATOM     22  O   UNL     1      -3.595  17.605   0.476  1.00  0.00    -0.462 OA
ATOM     23  C   UNL     1      -4.187  13.965  -3.088  1.00  0.00    -0.023 C 
ATOM     24  C   UNL     1      -2.688  18.201   1.304  1.00  0.00    +0.316 C 
ATOM     25  C   UNL     1      -3.280  13.125  -3.630  1.00  0.00    -0.048 C 
ATOM     26  O   UNL     1      -1.848  19.012   0.947  1.00  0.00    -0.251 OA
ATOM     27  C   UNL     1      -2.923  17.684   2.722  1.00  0.00    +0.161 C 
ATOM     28  C   UNL     1      -2.095  16.397   2.991  1.00  0.00    +0.134 C 
ATOM     29  C   UNL     1      -2.714  18.760   3.760  1.00  0.00    -0.007 C 
ATOM     30  C   UNL     1      -2.976  11.773  -1.350  1.00  0.00    +0.042 C 
ATOM     31  C   UNL     1      -2.249  15.960   4.448  1.00  0.00    +0.188 C 
ATOM     32  C   UNL     1      -2.710  15.175   2.344  1.00  0.00    -0.009 C 
ATOM     33  C   UNL     1      -2.321  18.488   5.017  1.00  0.00    -0.045 C 
ATOM     34  C   UNL     1      -2.348  12.898  -0.542  1.00  0.00    -0.021 C 
ATOM     35  O   UNL     1      -3.593  15.419   4.516  1.00  0.00    -0.367 OA
ATOM     36  C   UNL     1      -2.005  17.084   5.474  1.00  0.00    +0.172 C 
ATOM     37  C   UNL     1      -3.776  14.682   3.283  1.00  0.00    +0.195 C 
ATOM     38  C   UNL     1      -2.291  14.598   1.205  1.00  0.00    +0.004 C 
ATOM     39  C   UNL     1      -2.888  13.448   0.559  1.00  0.00    -0.004 C 
ATOM     40  C   UNL     1      -3.511  21.570  -6.189  1.00  0.00    +0.010 C 
ATOM     41  C   UNL     1      -2.741  13.321  -5.028  1.00  0.00    +0.042 C 
ATOM     42  C   UNL     1      -2.511  10.434  -0.771  1.00  0.00    +0.015 C 
ATOM     43  C   UNL     1      -2.119  19.580   6.031  1.00  0.00    +0.042 C 
BRANCH  12  44
ATOM     44  C   UNL     1      -1.289  19.338  -5.335  1.00  0.00    +0.015 C 
ATOM     45  C   UNL     1      -0.229  19.421  -4.225  1.00  0.00    +0.010 C 
BRANCH  44  46
ATOM     46  C   UNL     1      -1.143  17.959  -6.025  1.00  0.00    +0.002 C 
ATOM     47  C   UNL     1      -2.466  17.306  -6.401  1.00  0.00    +0.004 C 
ENDBRANCH  44  46
ENDBRANCH  12  44
BRANCH  28  48
ATOM     48  O   UNL     1      -0.721  16.548   2.659  1.00  0.00    -0.381 OA
ATOM     49  H   UNL     1      -0.242  15.751   2.944  1.00  0.00    +0.212 HD
ENDBRANCH  28  48
BRANCH  36  50
ATOM     50  O   UNL     1      -2.752  16.805   6.661  1.00  0.00    -0.386 OA
ATOM     51  H   UNL     1      -2.230  16.130   7.138  1.00  0.00    +0.211 HD
ENDBRANCH  36  50
ENDBRANCH   8   9
ENDBRANCH   2   8
BRANCH   4  52
ATOM     52  O   UNL     1       0.894  13.575   0.334  1.00  0.00    -0.378 OA
ATOM     53  C   UNL     1       1.882  13.427   1.349  1.00  0.00    +0.195 C 
ENDBRANCH   4  52
BRANCH   3  54
ATOM     54  O   UNL     1       2.626  15.423  -1.518  1.00  0.00    -0.344 OA
BRANCH  54  55
ATOM     55  C   UNL     1       2.465  16.770  -1.062  1.00  0.00    +0.253 C 
ATOM     56  O   UNL     1       3.452  17.580  -1.698  1.00  0.00    -0.347 OA
ATOM     57  C   UNL     1       2.587  16.732   0.460  1.00  0.00    +0.097 C 
ATOM     58  C   UNL     1       3.877  18.736  -0.978  1.00  0.00    +0.149 C 
ATOM     59  C   UNL     1       4.025  16.983   0.886  1.00  0.00    +0.154 C 
ATOM     60  C   UNL     1       4.493  18.364   0.389  1.00  0.00    +0.172 C 
ATOM     61  C   UNL     1       2.750  19.761  -0.871  1.00  0.00    +0.041 C 
BRANCH  59  62
ATOM     62  O   UNL     1       4.101  16.982   2.325  1.00  0.00    -0.378 OA
ATOM     63  C   UNL     1       4.526  15.731   2.850  1.00  0.00    +0.195 C 
ENDBRANCH  59  62
BRANCH  60  64
ATOM     64  O   UNL     1       5.930  18.315   0.273  1.00  0.00    -0.388 OA
ATOM     65  H   UNL     1       6.303  18.684   1.090  1.00  0.00    +0.211 HD
ENDBRANCH  60  64
ENDBRANCH  54  55
ENDBRANCH   3  54
TORSDOF 11
ENDMDL
MODEL 3
REMARK VINA RESULT:    -7.029      2.269      5.078
REMARK INTER + INTRA:         -12.628
REMARK INTER:                 -10.993
REMARK INTRA:                  -1.635
REMARK UNBOUND:                -1.695
REMARK SMILES CC[C@H](C)[C@H]1O[C@]2(CC[C@@H]1C)C[C@@H]1C[C@@H](C/C=C(\C)[C@@H](O[C@H]3C[C@H](OC)[C@@H](O[C@H]4C[C@H](OC)[C@@H](O)[C@H](C)O4)[C@H](C)O3)[C@@H](C)/C=C/C=C3\CO[C@@H]4[C@H](O)C(C)=C[C@@H](C(=O)O1)[C@]34O)O2
REMARK SMILES IDX 41 1 22 2 27 3 24 4 23 5 39 6 40 7 21 8 20 9 6 10 7 11 5 12
REMARK SMILES IDX 62 13 8 14 12 15 10 16 15 17 9 18 13 19 14 20 16 21 59 22
REMARK SMILES IDX 17 23 57 24 18 25 58 26 56 27 60 28 55 29 42 30 50 31 47 32
REMARK SMILES IDX 53 33 44 34 49 35 51 36 48 37 46 38 45 39 11 40 19 41 43 42
REMARK SMILES IDX 54 43 3 44 4 45 2 46 1 47 61 48 52 50 25 52 26 53 28 54
REMARK SMILES IDX 29 55 38 56 30 57 36 58 31 59 34 60 37 61 32 62 33 63 35 64
REMARK H PARENT 61 49 52 51 35 65
ROOT
ATOM      1  O   UNL     1       0.348  18.902  -1.262  1.00  0.00    -0.347 OA
ATOM      2  C   UNL     1       1.000  19.950  -1.977  1.00  0.00    +0.253 C 
ATOM      3  C   UNL     1       2.450  18.750   0.017  1.00  0.00    +0.179 C 
ATOM      4  C   UNL     1       2.770  20.245  -0.214  1.00  0.00    +0.154 C 
ATOM      5  C   UNL     1       1.686  20.940  -1.038  1.00  0.00    +0.097 C 
ATOM      6  C   UNL     1       0.927  18.550  -0.001  1.00  0.00    +0.150 C 
ATOM      7  C   UNL     1       0.535  17.101   0.280  1.00  0.00    +0.041 C 
ENDROOT
BRANCH   2   8
ATOM      8  O   UNL     1       0.017  20.675  -2.716  1.00  0.00    -0.344 OA
BRANCH   8   9
ATOM      9  C   UNL     1      -0.507  20.006  -3.877  1.00  0.00    +0.153 C 
ATOM     10  O   UNL     1      -2.814  14.659   0.335  1.00  0.00    -0.346 OA
ATOM     11  C   UNL     1      -3.103  14.012  -0.911  1.00  0.00    +0.172 C 
ATOM     12  C   UNL     1      -3.973  14.928   1.128  1.00  0.00    +0.127 C 
ATOM     13  O   UNL     1      -3.469  14.970  -1.917  1.00  0.00    -0.346 OA
ATOM     14  C   UNL     1      -4.289  13.031  -0.782  1.00  0.00    +0.066 C 
ATOM     15  C   UNL     1      -1.837  13.251  -1.343  1.00  0.00    +0.111 C 
ATOM     16  C   UNL     1      -4.534  13.586   1.667  1.00  0.00    +0.015 C 
ATOM     17  C   UNL     1      -2.460  15.954  -2.176  1.00  0.00    +0.129 C 
ATOM     18  C   UNL     1      -4.385  12.461   0.625  1.00  0.00    +0.011 C 
ATOM     19  C   UNL     1      -0.704  14.226  -1.633  1.00  0.00    +0.184 C 
ATOM     20  C   UNL     1      -1.179  15.269  -2.629  1.00  0.00    +0.078 C 
ATOM     21  C   UNL     1      -2.995  16.928  -3.249  1.00  0.00    +0.059 C 
ATOM     22  O   UNL     1       0.400  13.568  -2.284  1.00  0.00    -0.462 OA
ATOM     23  C   UNL     1      -1.942  17.890  -3.750  1.00  0.00    -0.023 C 
ATOM     24  C   UNL     1       1.401  13.067  -1.505  1.00  0.00    +0.316 C 
ATOM     25  C   UNL     1      -1.712  19.169  -3.383  1.00  0.00    -0.048 C 
ATOM     26  O   UNL     1       1.346  12.944  -0.292  1.00  0.00    -0.251 OA
ATOM     27  C   UNL     1       2.570  12.689  -2.415  1.00  0.00    +0.161 C 
ATOM     28  C   UNL     1       3.533  13.892  -2.614  1.00  0.00    +0.134 C 
ATOM     29  C   UNL     1       3.267  11.433  -1.951  1.00  0.00    -0.007 C 
ATOM     30  C   UNL     1       0.646  19.240  -4.630  1.00  0.00    +0.042 C 
ATOM     31  C   UNL     1       4.755  13.466  -3.427  1.00  0.00    +0.188 C 
ATOM     32  C   UNL     1       2.982  14.911  -3.589  1.00  0.00    -0.009 C 
ATOM     33  C   UNL     1       4.567  11.194  -2.194  1.00  0.00    -0.045 C 
ATOM     34  C   UNL     1       1.359  18.224  -3.751  1.00  0.00    -0.021 C 
ATOM     35  O   UNL     1       4.248  13.316  -4.778  1.00  0.00    -0.367 OA
ATOM     36  C   UNL     1       5.449  12.191  -2.906  1.00  0.00    +0.172 C 
ATOM     37  C   UNL     1       3.322  14.414  -4.967  1.00  0.00    +0.195 C 
ATOM     38  C   UNL     1       2.405  16.078  -3.258  1.00  0.00    +0.004 C 
ATOM     39  C   UNL     1       1.848  17.047  -4.177  1.00  0.00    -0.004 C 
ATOM     40  C   UNL     1      -5.993  13.740   2.105  1.00  0.00    +0.010 C 
ATOM     41  C   UNL     1      -2.628  19.908  -2.435  1.00  0.00    +0.042 C 
ATOM     42  C   UNL     1       1.688  20.188  -5.228  1.00  0.00    +0.015 C 
ATOM     43  C   UNL     1       5.237   9.933  -1.719  1.00  0.00    +0.042 C 
BRANCH  12  44
ATOM     44  C   UNL     1      -3.599  15.952   2.235  1.00  0.00    +0.015 C 
ATOM     45  C   UNL     1      -2.109  15.905   2.609  1.00  0.00    +0.010 C 
BRANCH  44  46
ATOM     46  C   UNL     1      -3.938  17.408   1.831  1.00  0.00    +0.002 C 
ATOM     47  C   UNL     1      -2.856  18.096   1.010  1.00  0.00    +0.004 C 
ENDBRANCH  44  46
ENDBRANCH  12  44
BRANCH  28  48
ATOM     48  O   UNL     1       3.934  14.484  -1.386  1.00  0.00    -0.381 OA
ATOM     49  H   UNL     1       4.894  14.363  -1.280  1.00  0.00    +0.212 HD
ENDBRANCH  28  48
BRANCH  36  50
ATOM     50  O   UNL     1       6.104  11.536  -3.995  1.00  0.00    -0.386 OA
ATOM     51  H   UNL     1       6.441  10.699  -3.622  1.00  0.00    +0.211 HD
ENDBRANCH  36  50
ENDBRANCH   8   9
ENDBRANCH   2   8
BRANCH   4  52
ATOM     52  O   UNL     1       4.036  20.320  -0.902  1.00  0.00    -0.378 OA
ATOM     53  C   UNL     1       4.342  21.632  -1.364  1.00  0.00    +0.195 C 
ENDBRANCH   4  52
BRANCH   3  54
ATOM     54  O   UNL     1       2.968  18.351   1.295  1.00  0.00    -0.344 OA
BRANCH  54  55
ATOM     55  C   UNL     1       3.774  17.170   1.226  1.00  0.00    +0.253 C 
ATOM     56  O   UNL     1       4.415  16.991   2.487  1.00  0.00    -0.347 OA
ATOM     57  C   UNL     1       4.746  17.374   0.065  1.00  0.00    +0.097 C 
ATOM     58  C   UNL     1       5.668  16.308   2.466  1.00  0.00    +0.149 C 
ATOM     59  C   UNL     1       6.049  17.980   0.561  1.00  0.00    +0.154 C 
ATOM     60  C   UNL     1       6.708  17.049   1.598  1.00  0.00    +0.172 C 
ATOM     61  C   UNL     1       5.487  14.843   2.070  1.00  0.00    +0.041 C 
BRANCH  59  62
ATOM     62  O   UNL     1       6.959  18.122  -0.547  1.00  0.00    -0.378 OA
ATOM     63  C   UNL     1       7.421  19.457  -0.709  1.00  0.00    +0.195 C 
ENDBRANCH  59  62
BRANCH  60  64
ATOM     64  O   UNL     1       7.544  17.868   2.440  1.00  0.00    -0.388 OA
ATOM     65  H   UNL     1       7.775  18.666   1.937  1.00  0.00    +0.211 HD
ENDBRANCH  60  64
ENDBRANCH  54  55
ENDBRANCH   3  54
TORSDOF 11
ENDMDL
MODEL 4
REMARK VINA RESULT:    -6.880      2.853      8.372
REMARK INTER + INTRA:         -12.396
REMARK INTER:                 -11.572
REMARK INTRA:                  -0.824
REMARK UNBOUND:                -1.695
REMARK SMILES CC[C@H](C)[C@H]1O[C@]2(CC[C@@H]1C)C[C@@H]1C[C@@H](C/C=C(\C)[C@@H](O[C@H]3C[C@H](OC)[C@@H](O[C@H]4C[C@H](OC)[C@@H](O)[C@H](C)O4)[C@H](C)O3)[C@@H](C)/C=C/C=C3\CO[C@@H]4[C@H](O)C(C)=C[C@@H](C(=O)O1)[C@]34O)O2
REMARK SMILES IDX 41 1 22 2 27 3 24 4 23 5 39 6 40 7 21 8 20 9 6 10 7 11 5 12
REMARK SMILES IDX 62 13 8 14 12 15 10 16 15 17 9 18 13 19 14 20 16 21 59 22
REMARK SMILES IDX 17 23 57 24 18 25 58 26 56 27 60 28 55 29 42 30 50 31 47 32
REMARK SMILES IDX 53 33 44 34 49 35 51 36 48 37 46 38 45 39 11 40 19 41 43 42
REMARK SMILES IDX 54 43 3 44 4 45 2 46 1 47 61 48 52 50 25 52 26 53 28 54
REMARK SMILES IDX 29 55 38 56 30 57 36 58 31 59 34 60 37 61 32 62 33 63 35 64
REMARK H PARENT 61 49 52 51 35 65
ROOT
ATOM      1  O   UNL     1       0.959  13.505  -2.756  1.00  0.00    -0.347 OA
ATOM      2  C   UNL     1      -0.003  13.127  -1.773  1.00  0.00    +0.253 C 
ATOM      3  C   UNL     1       1.810  15.046  -1.031  1.00  0.00    +0.179 C 
ATOM      4  C   UNL     1       1.326  14.128   0.115  1.00  0.00    +0.154 C 
ATOM      5  C   UNL     1       0.645  12.865  -0.414  1.00  0.00    +0.097 C 
ATOM      6  C   UNL     1       2.117  14.190  -2.269  1.00  0.00    +0.150 C 
ATOM      7  C   UNL     1       2.659  15.027  -3.426  1.00  0.00    +0.041 C 
ENDROOT
BRANCH   2   8
ATOM      8  O   UNL     1      -0.624  11.912  -2.189  1.00  0.00    -0.344 OA
BRANCH   8   9
ATOM      9  C   UNL     1      -2.050  11.972  -2.370  1.00  0.00    +0.153 C 
ATOM     10  O   UNL     1      -1.671  19.149  -2.352  1.00  0.00    -0.346 OA
ATOM     11  C   UNL     1      -3.101  19.069  -2.326  1.00  0.00    +0.172 C 
ATOM     12  C   UNL     1      -1.148  19.762  -3.533  1.00  0.00    +0.127 C 
ATOM     13  O   UNL     1      -3.565  17.909  -3.035  1.00  0.00    -0.346 OA
ATOM     14  C   UNL     1      -3.754  20.292  -3.006  1.00  0.00    +0.066 C 
ATOM     15  C   UNL     1      -3.535  18.995  -0.851  1.00  0.00    +0.111 C 
ATOM     16  C   UNL     1      -1.484  21.276  -3.503  1.00  0.00    +0.015 C 
ATOM     17  C   UNL     1      -3.063  16.671  -2.515  1.00  0.00    +0.129 C 
ATOM     18  C   UNL     1      -2.873  21.527  -2.885  1.00  0.00    +0.011 C 
ATOM     19  C   UNL     1      -3.034  17.706  -0.215  1.00  0.00    +0.184 C 
ATOM     20  C   UNL     1      -3.474  16.522  -1.058  1.00  0.00    +0.078 C 
ATOM     21  C   UNL     1      -3.615  15.519  -3.384  1.00  0.00    +0.059 C 
ATOM     22  O   UNL     1      -3.640  17.487   1.074  1.00  0.00    -0.462 OA
ATOM     23  C   UNL     1      -3.316  14.153  -2.810  1.00  0.00    -0.023 C 
ATOM     24  C   UNL     1      -2.993  17.959   2.179  1.00  0.00    +0.316 C 
ATOM     25  C   UNL     1      -2.330  13.290  -3.133  1.00  0.00    -0.048 C 
ATOM     26  O   UNL     1      -2.047  18.731   2.156  1.00  0.00    -0.251 OA
ATOM     27  C   UNL     1      -3.664  17.363   3.416  1.00  0.00    +0.161 C 
ATOM     28  C   UNL     1      -3.016  16.005   3.802  1.00  0.00    +0.134 C 
ATOM     29  C   UNL     1      -3.722  18.348   4.559  1.00  0.00    -0.007 C 
ATOM     30  C   UNL     1      -2.783  11.766  -0.991  1.00  0.00    +0.042 C 
ATOM     31  C   UNL     1      -3.616  15.481   5.106  1.00  0.00    +0.188 C 
ATOM     32  C   UNL     1      -3.468  14.877   2.900  1.00  0.00    -0.009 C 
ATOM     33  C   UNL     1      -3.735  17.962   5.847  1.00  0.00    -0.045 C 
ATOM     34  C   UNL     1      -2.371  12.785   0.061  1.00  0.00    -0.021 C 
ATOM     35  O   UNL     1      -4.944  15.033   4.731  1.00  0.00    -0.367 OA
ATOM     36  C   UNL     1      -3.637  16.511   6.253  1.00  0.00    +0.172 C 
ATOM     37  C   UNL     1      -4.787  14.398   3.439  1.00  0.00    +0.195 C 
ATOM     38  C   UNL     1      -2.756  14.352   1.887  1.00  0.00    +0.004 C 
ATOM     39  C   UNL     1      -3.188  13.295   0.998  1.00  0.00    -0.004 C 
ATOM     40  C   UNL     1      -1.388  21.887  -4.904  1.00  0.00    +0.010 C 
ATOM     41  C   UNL     1      -1.390  13.544  -4.289  1.00  0.00    +0.042 C 
ATOM     42  C   UNL     1      -2.575  10.361  -0.420  1.00  0.00    +0.015 C 
ATOM     43  C   UNL     1      -3.792  18.965   6.967  1.00  0.00    +0.042 C 
BRANCH  12  44
ATOM     44  C   UNL     1       0.370  19.449  -3.634  1.00  0.00    +0.015 C 
ATOM     45  C   UNL     1       0.931  18.812  -2.352  1.00  0.00    +0.010 C 
BRANCH  44  46
ATOM     46  C   UNL     1       0.701  18.503  -4.815  1.00  0.00    +0.002 C 
ATOM     47  C   UNL     1      -0.207  17.285  -4.911  1.00  0.00    +0.004 C 
ENDBRANCH  44  46
ENDBRANCH  12  44
BRANCH  28  48
ATOM     48  O   UNL     1      -1.600  16.081   3.902  1.00  0.00    -0.381 OA
ATOM     49  H   UNL     1      -1.336  15.819   4.801  1.00  0.00    +0.212 HD
ENDBRANCH  28  48
BRANCH  36  50
ATOM     50  O   UNL     1      -4.715  16.204   7.140  1.00  0.00    -0.386 OA
ATOM     51  H   UNL     1      -4.802  15.232   7.107  1.00  0.00    +0.211 HD
ENDBRANCH  36  50
ENDBRANCH   8   9
ENDBRANCH   2   8
BRANCH   4  52
ATOM     52  O   UNL     1       0.399  14.886   0.921  1.00  0.00    -0.378 OA
ATOM     53  C   UNL     1      -0.004  16.107   0.308  1.00  0.00    +0.195 C 
ENDBRANCH   4  52
BRANCH   3  54
ATOM     54  O   UNL     1       3.003  15.727  -0.614  1.00  0.00    -0.344 OA
BRANCH  54  55
ATOM     55  C   UNL     1       3.479  15.287   0.662  1.00  0.00    +0.253 C 
ATOM     56  O   UNL     1       4.101  16.392   1.314  1.00  0.00    -0.347 OA
ATOM     57  C   UNL     1       4.426  14.118   0.394  1.00  0.00    +0.097 C 
ATOM     58  C   UNL     1       5.137  16.074   2.243  1.00  0.00    +0.149 C 
ATOM     59  C   UNL     1       5.859  14.611   0.266  1.00  0.00    +0.154 C 
ATOM     60  C   UNL     1       6.298  15.314   1.565  1.00  0.00    +0.172 C 
ATOM     61  C   UNL     1       4.575  15.351   3.466  1.00  0.00    +0.041 C 
BRANCH  59  62
ATOM     62  O   UNL     1       6.731  13.485   0.055  1.00  0.00    -0.378 OA
ATOM     63  C   UNL     1       6.023  12.298  -0.280  1.00  0.00    +0.195 C 
ENDBRANCH  59  62
BRANCH  60  64
ATOM     64  O   UNL     1       7.347  16.241   1.219  1.00  0.00    -0.388 OA
ATOM     65  H   UNL     1       7.827  16.459   2.035  1.00  0.00    +0.211 HD
ENDBRANCH  60  64
ENDBRANCH  54  55
ENDBRANCH   3  54
TORSDOF 11
ENDMDL
MODEL 5
REMARK VINA RESULT:    -6.484      2.002      6.632
REMARK INTER + INTRA:         -11.780
REMARK INTER:                  -9.385
REMARK INTRA:                  -2.395
REMARK UNBOUND:                -1.695
REMARK SMILES CC[C@H](C)[C@H]1O[C@]2(CC[C@@H]1C)C[C@@H]1C[C@@H](C/C=C(\C)[C@@H](O[C@H]3C[C@H](OC)[C@@H](O[C@H]4C[C@H](OC)[C@@H](O)[C@H](C)O4)[C@H](C)O3)[C@@H](C)/C=C/C=C3\CO[C@@H]4[C@H](O)C(C)=C[C@@H](C(=O)O1)[C@]34O)O2
REMARK SMILES IDX 41 1 22 2 27 3 24 4 23 5 39 6 40 7 21 8 20 9 6 10 7 11 5 12
REMARK SMILES IDX 62 13 8 14 12 15 10 16 15 17 9 18 13 19 14 20 16 21 59 22
REMARK SMILES IDX 17 23 57 24 18 25 58 26 56 27 60 28 55 29 42 30 50 31 47 32
REMARK SMILES IDX 53 33 44 34 49 35 51 36 48 37 46 38 45 39 11 40 19 41 43 42
REMARK SMILES IDX 54 43 3 44 4 45 2 46 1 47 61 48 52 50 25 52 26 53 28 54
REMARK SMILES IDX 29 55 38 56 30 57 36 58 31 59 34 60 37 61 32 62 33 63 35 64
REMARK H PARENT 61 49 52 51 35 65
ROOT
ATOM      1  O   UNL     1      -0.506  16.839   1.073  1.00  0.00    -0.347 OA
ATOM      2  C   UNL     1      -1.708  16.973   0.316  1.00  0.00    +0.253 C 
ATOM      3  C   UNL     1       0.159  18.956  -0.002  1.00  0.00    +0.179 C 
ATOM      4  C   UNL     1      -1.311  19.413  -0.150  1.00  0.00    +0.154 C 
ATOM      5  C   UNL     1      -2.289  18.383   0.415  1.00  0.00    +0.097 C 
ATOM      6  C   UNL     1       0.279  18.027   1.216  1.00  0.00    +0.150 C 
ATOM      7  C   UNL     1       1.720  17.582   1.459  1.00  0.00    +0.041 C 
ENDROOT
BRANCH   2   8
ATOM      8  O   UNL     1      -2.681  16.074   0.848  1.00  0.00    -0.344 OA
BRANCH   8   9
ATOM      9  C   UNL     1      -3.102  15.020  -0.036  1.00  0.00    +0.153 C 
ATOM     10  O   UNL     1       3.791  13.558  -1.451  1.00  0.00    -0.346 OA
ATOM     11  C   UNL     1       3.240  12.686  -2.446  1.00  0.00    +0.172 C 
ATOM     12  C   UNL     1       4.521  12.877  -0.427  1.00  0.00    +0.127 C 
ATOM     13  O   UNL     1       1.978  12.148  -2.017  1.00  0.00    -0.346 OA
ATOM     14  C   UNL     1       4.163  11.480  -2.722  1.00  0.00    +0.066 C 
ATOM     15  C   UNL     1       3.053  13.509  -3.732  1.00  0.00    +0.111 C 
ATOM     16  C   UNL     1       5.837  12.324  -1.033  1.00  0.00    +0.015 C 
ATOM     17  C   UNL     1       0.989  13.145  -1.733  1.00  0.00    +0.129 C 
ATOM     18  C   UNL     1       5.623  11.833  -2.478  1.00  0.00    +0.011 C 
ATOM     19  C   UNL     1       2.016  14.603  -3.517  1.00  0.00    +0.184 C 
ATOM     20  C   UNL     1       0.738  13.988  -2.975  1.00  0.00    +0.078 C 
ATOM     21  C   UNL     1      -0.298  12.432  -1.260  1.00  0.00    +0.059 C 
ATOM     22  O   UNL     1       1.632  15.215  -4.763  1.00  0.00    -0.462 OA
ATOM     23  C   UNL     1      -1.476  13.369  -1.124  1.00  0.00    -0.023 C 
ATOM     24  C   UNL     1       2.313  16.324  -5.174  1.00  0.00    +0.316 C 
ATOM     25  C   UNL     1      -1.967  13.967  -0.018  1.00  0.00    -0.048 C 
ATOM     26  O   UNL     1       3.355  16.724  -4.679  1.00  0.00    -0.251 OA
ATOM     27  C   UNL     1       1.551  16.946  -6.343  1.00  0.00    +0.161 C 
ATOM     28  C   UNL     1       0.494  17.967  -5.839  1.00  0.00    +0.134 C 
ATOM     29  C   UNL     1       2.481  17.512  -7.389  1.00  0.00    -0.007 C 
ATOM     30  C   UNL     1      -3.515  15.614  -1.435  1.00  0.00    +0.042 C 
ATOM     31  C   UNL     1      -0.176  18.667  -7.021  1.00  0.00    +0.188 C 
ATOM     32  C   UNL     1      -0.737  17.287  -5.278  1.00  0.00    -0.009 C 
ATOM     33  C   UNL     1       2.137  18.541  -8.183  1.00  0.00    -0.045 C 
ATOM     34  C   UNL     1      -2.397  16.404  -2.100  1.00  0.00    -0.021 C 
ATOM     35  O   UNL     1      -1.047  17.654  -7.586  1.00  0.00    -0.367 OA
ATOM     36  C   UNL     1       0.810  19.248  -8.054  1.00  0.00    +0.172 C 
ATOM     37  C   UNL     1      -1.618  16.958  -6.451  1.00  0.00    +0.195 C 
ATOM     38  C   UNL     1      -1.014  17.123  -3.973  1.00  0.00    +0.004 C 
ATOM     39  C   UNL     1      -2.171  16.450  -3.424  1.00  0.00    -0.004 C 
ATOM     40  C   UNL     1       6.419  11.212  -0.156  1.00  0.00    +0.010 C 
ATOM     41  C   UNL     1      -1.437  13.656   1.363  1.00  0.00    +0.042 C 
ATOM     42  C   UNL     1      -4.760  16.501  -1.352  1.00  0.00    +0.015 C 
ATOM     43  C   UNL     1       3.085  19.086  -9.217  1.00  0.00    +0.042 C 
BRANCH  12  44
ATOM     44  C   UNL     1       4.729  13.845   0.771  1.00  0.00    +0.015 C 
ATOM     45  C   UNL     1       5.898  14.819   0.552  1.00  0.00    +0.010 C 
BRANCH  44  46
ATOM     46  C   UNL     1       3.465  14.685   1.078  1.00  0.00    +0.002 C 
ATOM     47  C   UNL     1       2.230  13.857   1.406  1.00  0.00    +0.004 C 
ENDBRANCH  44  46
ENDBRANCH  12  44
BRANCH  28  48
ATOM     48  O   UNL     1       1.039  18.923  -4.939  1.00  0.00    -0.381 OA
ATOM     49  H   UNL     1       1.347  19.692  -5.450  1.00  0.00    +0.212 HD
ENDBRANCH  28  48
BRANCH  36  50
ATOM     50  O   UNL     1       0.178  19.286  -9.336  1.00  0.00    -0.386 OA
ATOM     51  H   UNL     1      -0.592  18.691  -9.257  1.00  0.00    +0.211 HD
ENDBRANCH  36  50
ENDBRANCH   8   9
ENDBRANCH   2   8
BRANCH   4  52
ATOM     52  O   UNL     1      -1.566  19.616  -1.555  1.00  0.00    -0.378 OA
ATOM     53  C   UNL     1      -2.881  20.096  -1.820  1.00  0.00    +0.195 C 
ENDBRANCH   4  52
BRANCH   3  54
ATOM     54  O   UNL     1       0.991  20.109   0.194  1.00  0.00    -0.344 OA
BRANCH  54  55
ATOM     55  C   UNL     1       1.883  20.345  -0.899  1.00  0.00    +0.253 C 
ATOM     56  O   UNL     1       2.122  19.103  -1.559  1.00  0.00    -0.347 OA
ATOM     57  C   UNL     1       3.141  20.978  -0.306  1.00  0.00    +0.097 C 
ATOM     58  C   UNL     1       3.379  18.974  -2.224  1.00  0.00    +0.149 C 
ATOM     59  C   UNL     1       4.169  19.909   0.028  1.00  0.00    +0.154 C 
ATOM     60  C   UNL     1       4.562  19.133  -1.244  1.00  0.00    +0.172 C 
ATOM     61  C   UNL     1       3.462  19.912  -3.427  1.00  0.00    +0.041 C 
BRANCH  59  62
ATOM     62  O   UNL     1       5.357  20.539   0.546  1.00  0.00    -0.378 OA
ATOM     63  C   UNL     1       6.040  21.311  -0.433  1.00  0.00    +0.195 C 
ENDBRANCH  59  62
BRANCH  60  64
ATOM     64  O   UNL     1       5.023  17.831  -0.828  1.00  0.00    -0.388 OA
ATOM     65  H   UNL     1       4.428  17.520  -0.126  1.00  0.00    +0.211 HD
ENDBRANCH  60  64
ENDBRANCH  54  55
ENDBRANCH   3  54
TORSDOF 11
ENDMDL
MODEL 6
REMARK VINA RESULT:    -6.483      2.188      6.795
REMARK INTER + INTRA:         -11.779
REMARK INTER:                  -9.175
REMARK INTRA:                  -2.603
REMARK UNBOUND:                -1.695
REMARK SMILES CC[C@H](C)[C@H]1O[C@]2(CC[C@@H]1C)C[C@@H]1C[C@@H](C/C=C(\C)[C@@H](O[C@H]3C[C@H](OC)[C@@H](O[C@H]4C[C@H](OC)[C@@H](O)[C@H](C)O4)[C@H](C)O3)[C@@H](C)/C=C/C=C3\CO[C@@H]4[C@H](O)C(C)=C[C@@H](C(=O)O1)[C@]34O)O2
REMARK SMILES IDX 41 1 22 2 27 3 24 4 23 5 39 6 40 7 21 8 20 9 6 10 7 11 5 12
REMARK SMILES IDX 62 13 8 14 12 15 10 16 15 17 9 18 13 19 14 20 16 21 59 22
REMARK SMILES IDX 17 23 57 24 18 25 58 26 56 27 60 28 55 29 42 30 50 31 47 32
REMARK SMILES IDX 53 33 44 34 49 35 51 36 48 37 46 38 45 39 11 40 19 41 43 42
REMARK SMILES IDX 54 43 3 44 4 45 2 46 1 47 61 48 52 50 25 52 26 53 28 54
REMARK SMILES IDX 29 55 38 56 30 57 36 58 31 59 34 60 37 61 32 62 33 63 35 64
REMARK H PARENT 61 49 52 51 35 65
ROOT
ATOM      1  O   UNL     1      -1.332  17.087   1.380  1.00  0.00    -0.347 OA
ATOM      2  C   UNL     1      -2.610  17.195   0.757  1.00  0.00    +0.253 C 
ATOM      3  C   UNL     1      -0.645  18.848  -0.202  1.00  0.00    +0.179 C 
ATOM      4  C   UNL     1      -2.077  19.426  -0.276  1.00  0.00    +0.154 C 
ATOM      5  C   UNL     1      -3.052  18.650   0.611  1.00  0.00    +0.097 C 
ATOM      6  C   UNL     1      -0.437  18.184   1.167  1.00  0.00    +0.150 C 
ATOM      7  C   UNL     1       0.981  17.641   1.332  1.00  0.00    +0.041 C 
ENDROOT
BRANCH   2   8
ATOM      8  O   UNL     1      -3.573  16.540   1.583  1.00  0.00    -0.344 OA
BRANCH   8   9
ATOM      9  C   UNL     1      -3.939  15.209   1.174  1.00  0.00    +0.153 C 
ATOM     10  O   UNL     1       2.785  14.148  -1.133  1.00  0.00    -0.346 OA
ATOM     11  C   UNL     1       2.241  12.937  -1.673  1.00  0.00    +0.172 C 
ATOM     12  C   UNL     1       3.777  13.938  -0.126  1.00  0.00    +0.127 C 
ATOM     13  O   UNL     1       1.179  12.435  -0.846  1.00  0.00    -0.346 OA
ATOM     14  C   UNL     1       3.305  11.821  -1.752  1.00  0.00    +0.066 C 
ATOM     15  C   UNL     1       1.708  13.254  -3.081  1.00  0.00    +0.111 C 
ATOM     16  C   UNL     1       5.055  13.366  -0.794  1.00  0.00    +0.015 C 
ATOM     17  C   UNL     1       0.089  13.350  -0.681  1.00  0.00    +0.129 C 
ATOM     18  C   UNL     1       4.700  12.398  -1.939  1.00  0.00    +0.011 C 
ATOM     19  C   UNL     1       0.545  14.232  -3.000  1.00  0.00    +0.184 C 
ATOM     20  C   UNL     1      -0.502  13.694  -2.040  1.00  0.00    +0.078 C 
ATOM     21  C   UNL     1      -0.959  12.696   0.246  1.00  0.00    +0.059 C 
ATOM     22  O   UNL     1      -0.136  14.343  -4.265  1.00  0.00    -0.462 OA
ATOM     23  C   UNL     1      -2.246  13.485   0.331  1.00  0.00    -0.023 C 
ATOM     24  C   UNL     1       0.265  15.320  -5.129  1.00  0.00    +0.316 C 
ATOM     25  C   UNL     1      -2.649  14.359   1.277  1.00  0.00    -0.048 C 
ATOM     26  O   UNL     1       1.286  15.978  -5.012  1.00  0.00    -0.251 OA
ATOM     27  C   UNL     1      -0.773  15.424  -6.246  1.00  0.00    +0.161 C 
ATOM     28  C   UNL     1      -1.898  16.428  -5.871  1.00  0.00    +0.134 C 
ATOM     29  C   UNL     1      -0.137  15.708  -7.586  1.00  0.00    -0.007 C 
ATOM     30  C   UNL     1      -4.670  15.249  -0.221  1.00  0.00    +0.042 C 
ATOM     31  C   UNL     1      -2.861  16.610  -7.044  1.00  0.00    +0.188 C 
ATOM     32  C   UNL     1      -2.883  15.841  -4.884  1.00  0.00    -0.009 C 
ATOM     33  C   UNL     1      -0.779  16.365  -8.568  1.00  0.00    -0.045 C 
ATOM     34  C   UNL     1      -3.830  15.892  -1.314  1.00  0.00    -0.021 C 
ATOM     35  O   UNL     1      -3.620  15.374  -7.074  1.00  0.00    -0.367 OA
ATOM     36  C   UNL     1      -2.172  16.919  -8.387  1.00  0.00    +0.172 C 
ATOM     37  C   UNL     1      -3.870  15.040  -5.687  1.00  0.00    +0.195 C 
ATOM     38  C   UNL     1      -2.914  16.093  -3.564  1.00  0.00    +0.004 C 
ATOM     39  C   UNL     1      -3.831  15.516  -2.605  1.00  0.00    -0.004 C 
ATOM     40  C   UNL     1       5.956  12.686   0.241  1.00  0.00    +0.010 C 
ATOM     41  C   UNL     1      -1.857  14.591   2.543  1.00  0.00    +0.042 C 
ATOM     42  C   UNL     1      -6.021  15.966  -0.156  1.00  0.00    +0.015 C 
ATOM     43  C   UNL     1      -0.121  16.635  -9.893  1.00  0.00    +0.042 C 
BRANCH  12  44
ATOM     44  C   UNL     1       4.002  15.268   0.645  1.00  0.00    +0.015 C 
ATOM     45  C   UNL     1       4.158  15.056   2.160  1.00  0.00    +0.010 C 
BRANCH  44  46
ATOM     46  C   UNL     1       5.250  16.037   0.146  1.00  0.00    +0.002 C 
ATOM     47  C   UNL     1       6.260  16.363   1.238  1.00  0.00    +0.004 C 
ENDBRANCH  44  46
ENDBRANCH  12  44
BRANCH  28  48
ATOM     48  O   UNL     1      -1.391  17.685  -5.444  1.00  0.00    -0.381 OA
ATOM     49  H   UNL     1      -1.716  17.863  -4.544  1.00  0.00    +0.212 HD
ENDBRANCH  28  48
BRANCH  36  50
ATOM     50  O   UNL     1      -2.998  16.453  -9.457  1.00  0.00    -0.386 OA
ATOM     51  H   UNL     1      -3.913  16.530  -9.123  1.00  0.00    +0.211 HD
ENDBRANCH  36  50
ENDBRANCH   8   9
ENDBRANCH   2   8
BRANCH   4  52
ATOM     52  O   UNL     1      -2.505  19.361  -1.652  1.00  0.00    -0.378 OA
ATOM     53  C   UNL     1      -2.822  20.638  -2.198  1.00  0.00    +0.195 C 
ENDBRANCH   4  52
BRANCH   3  54
ATOM     54  O   UNL     1       0.301  19.917  -0.362  1.00  0.00    -0.344 OA
BRANCH  54  55
ATOM     55  C   UNL     1       0.856  19.977  -1.680  1.00  0.00    +0.253 C 
ATOM     56  O   UNL     1       0.545  18.760  -2.354  1.00  0.00    -0.347 OA
ATOM     57  C   UNL     1       2.355  20.220  -1.509  1.00  0.00    +0.097 C 
ATOM     58  C   UNL     1       1.464  18.346  -3.365  1.00  0.00    +0.149 C 
ATOM     59  C   UNL     1       3.109  18.900  -1.479  1.00  0.00    +0.154 C 
ATOM     60  C   UNL     1       2.882  18.128  -2.794  1.00  0.00    +0.172 C 
ATOM     61  C   UNL     1       1.435  19.302  -4.556  1.00  0.00    +0.041 C 
BRANCH  59  62
ATOM     62  O   UNL     1       4.520  19.163  -1.359  1.00  0.00    -0.378 OA
ATOM     63  C   UNL     1       4.866  19.736  -0.104  1.00  0.00    +0.195 C 
ENDBRANCH  59  62
BRANCH  60  64
ATOM     64  O   UNL     1       3.078  16.728  -2.509  1.00  0.00    -0.388 OA
ATOM     65  H   UNL     1       2.201  16.320  -2.428  1.00  0.00    +0.211 HD
ENDBRANCH  60  64
ENDBRANCH  54  55
ENDBRANCH   3  54
TORSDOF 11
ENDMDL
MODEL 7
REMARK VINA RESULT:    -6.341      3.250      7.366
REMARK INTER + INTRA:         -11.559
REMARK INTER:                 -10.239
REMARK INTRA:                  -1.320
REMARK UNBOUND:                -1.695
REMARK SMILES CC[C@H](C)[C@H]1O[C@]2(CC[C@@H]1C)C[C@@H]1C[C@@H](C/C=C(\C)[C@@H](O[C@H]3C[C@H](OC)[C@@H](O[C@H]4C[C@H](OC)[C@@H](O)[C@H](C)O4)[C@H](C)O3)[C@@H](C)/C=C/C=C3\CO[C@@H]4[C@H](O)C(C)=C[C@@H](C(=O)O1)[C@]34O)O2
REMARK SMILES IDX 41 1 22 2 27 3 24 4 23 5 39 6 40 7 21 8 20 9 6 10 7 11 5 12
REMARK SMILES IDX 62 13 8 14 12 15 10 16 15 17 9 18 13 19 14 20 16 21 59 22
REMARK SMILES IDX 17 23 57 24 18 25 58 26 56 27 60 28 55 29 42 30 50 31 47 32
REMARK SMILES IDX 53 33 44 34 49 35 51 36 48 37 46 38 45 39 11 40 19 41 43 42
REMARK SMILES IDX 54 43 3 44 4 45 2 46 1 47 61 48 52 50 25 52 26 53 28 54
REMARK SMILES IDX 29 55 38 56 30 57 36 58 31 59 34 60 37 61 32 62 33 63 35 64
REMARK H PARENT 61 49 52 51 35 65
ROOT
ATOM      1  O   UNL     1      -3.129  18.257   1.690  1.00  0.00    -0.347 OA
ATOM      2  C   UNL     1      -2.646  19.201   2.644  1.00  0.00    +0.253 C 
ATOM      3  C   UNL     1      -2.530  16.561   3.376  1.00  0.00    +0.179 C 
ATOM      4  C   UNL     1      -2.753  17.552   4.542  1.00  0.00    +0.154 C 
ATOM      5  C   UNL     1      -3.195  18.928   4.043  1.00  0.00    +0.097 C 
ATOM      6  C   UNL     1      -3.434  16.954   2.198  1.00  0.00    +0.150 C 
ATOM      7  C   UNL     1      -3.308  15.980   1.028  1.00  0.00    +0.041 C 
ENDROOT
BRANCH   2   8
ATOM      8  O   UNL     1      -3.089  20.501   2.259  1.00  0.00    -0.344 OA
BRANCH   8   9
ATOM      9  C   UNL     1      -2.402  21.085   1.137  1.00  0.00    +0.153 C 
ATOM     10  O   UNL     1      -3.838  15.189  -2.713  1.00  0.00    -0.346 OA
ATOM     11  C   UNL     1      -2.961  15.792  -3.673  1.00  0.00    +0.172 C 
ATOM     12  C   UNL     1      -5.183  15.040  -3.173  1.00  0.00    +0.127 C 
ATOM     13  O   UNL     1      -3.050  17.225  -3.623  1.00  0.00    -0.346 OA
ATOM     14  C   UNL     1      -3.323  15.377  -5.116  1.00  0.00    +0.066 C 
ATOM     15  C   UNL     1      -1.528  15.341  -3.341  1.00  0.00    +0.111 C 
ATOM     16  C   UNL     1      -5.220  13.945  -4.270  1.00  0.00    +0.015 C 
ATOM     17  C   UNL     1      -2.724  17.783  -2.344  1.00  0.00    +0.129 C 
ATOM     18  C   UNL     1      -3.957  13.995  -5.151  1.00  0.00    +0.011 C 
ATOM     19  C   UNL     1      -1.100  15.886  -1.986  1.00  0.00    +0.184 C 
ATOM     20  C   UNL     1      -1.305  17.391  -1.959  1.00  0.00    +0.078 C 
ATOM     21  C   UNL     1      -2.888  19.317  -2.425  1.00  0.00    +0.059 C 
ATOM     22  O   UNL     1       0.312  15.702  -1.769  1.00  0.00    -0.462 OA
ATOM     23  C   UNL     1      -2.377  20.031  -1.195  1.00  0.00    -0.023 C 
ATOM     24  C   UNL     1       0.724  14.567  -1.133  1.00  0.00    +0.316 C 
ATOM     25  C   UNL     1      -3.066  20.490  -0.128  1.00  0.00    -0.048 C 
ATOM     26  O   UNL     1       0.017  13.595  -0.913  1.00  0.00    -0.251 OA
ATOM     27  C   UNL     1       2.198  14.733  -0.766  1.00  0.00    +0.161 C 
ATOM     28  C   UNL     1       2.354  15.392   0.633  1.00  0.00    +0.134 C 
ATOM     29  C   UNL     1       2.967  13.442  -0.910  1.00  0.00    -0.007 C 
ATOM     30  C   UNL     1      -0.846  20.899   1.294  1.00  0.00    +0.042 C 
ATOM     31  C   UNL     1       3.827  15.442   1.035  1.00  0.00    +0.188 C 
ATOM     32  C   UNL     1       2.099  16.883   0.594  1.00  0.00    -0.009 C 
ATOM     33  C   UNL     1       4.058  13.163  -0.175  1.00  0.00    -0.045 C 
ATOM     34  C   UNL     1      -0.432  19.441   1.427  1.00  0.00    -0.021 C 
ATOM     35  O   UNL     1       4.389  16.485   0.197  1.00  0.00    -0.367 OA
ATOM     36  C   UNL     1       4.569  14.099   0.893  1.00  0.00    +0.172 C 
ATOM     37  C   UNL     1       3.384  17.527   0.151  1.00  0.00    +0.195 C 
ATOM     38  C   UNL     1       0.971  17.495   0.992  1.00  0.00    +0.004 C 
ATOM     39  C   UNL     1       0.703  18.916   0.933  1.00  0.00    -0.004 C 
ATOM     40  C   UNL     1      -6.488  14.064  -5.120  1.00  0.00    +0.010 C 
ATOM     41  C   UNL     1      -4.576  20.457  -0.075  1.00  0.00    +0.042 C 
ATOM     42  C   UNL     1      -0.277  21.680   2.481  1.00  0.00    +0.015 C 
ATOM     43  C   UNL     1       4.805  11.868  -0.339  1.00  0.00    +0.042 C 
BRANCH  12  44
ATOM     44  C   UNL     1      -6.103  14.753  -1.954  1.00  0.00    +0.015 C 
ATOM     45  C   UNL     1      -5.582  13.605  -1.074  1.00  0.00    +0.010 C 
BRANCH  44  46
ATOM     46  C   UNL     1      -6.289  15.995  -1.048  1.00  0.00    +0.002 C 
ATOM     47  C   UNL     1      -6.448  17.304  -1.810  1.00  0.00    +0.004 C 
ENDBRANCH  44  46
ENDBRANCH  12  44
BRANCH  28  48
ATOM     48  O   UNL     1       1.586  14.740   1.636  1.00  0.00    -0.381 OA
ATOM     49  H   UNL     1       1.724  15.199   2.482  1.00  0.00    +0.212 HD
ENDBRANCH  28  48
BRANCH  36  50
ATOM     50  O   UNL     1       5.957  14.352   0.663  1.00  0.00    -0.386 OA
ATOM     51  H   UNL     1       6.406  13.508   0.864  1.00  0.00    +0.211 HD
ENDBRANCH  36  50
ENDBRANCH   8   9
ENDBRANCH   2   8
BRANCH   4  52
ATOM     52  O   UNL     1      -1.510  17.666   5.264  1.00  0.00    -0.378 OA
ATOM     53  C   UNL     1      -1.473  18.789   6.139  1.00  0.00    +0.195 C 
ENDBRANCH   4  52
BRANCH   3  54
ATOM     54  O   UNL     1      -2.868  15.237   3.815  1.00  0.00    -0.344 OA
BRANCH  54  55
ATOM     55  C   UNL     1      -3.931  15.221   4.773  1.00  0.00    +0.253 C 
ATOM     56  O   UNL     1      -3.727  14.116   5.652  1.00  0.00    -0.347 OA
ATOM     57  C   UNL     1      -5.233  15.143   3.978  1.00  0.00    +0.097 C 
ATOM     58  C   UNL     1      -4.900  13.553   6.239  1.00  0.00    +0.149 C 
ATOM     59  C   UNL     1      -5.660  13.695   3.794  1.00  0.00    +0.154 C 
ATOM     60  C   UNL     1      -5.880  13.028   5.166  1.00  0.00    +0.172 C 
ATOM     61  C   UNL     1      -5.547  14.530   7.218  1.00  0.00    +0.041 C 
BRANCH  59  62
ATOM     62  O   UNL     1      -6.908  13.656   3.078  1.00  0.00    -0.378 OA
ATOM     63  C   UNL     1      -7.086  14.778   2.223  1.00  0.00    +0.195 C 
ENDBRANCH  59  62
BRANCH  60  64
ATOM     64  O   UNL     1      -5.688  11.609   4.990  1.00  0.00    -0.388 OA
ATOM     65  H   UNL     1      -6.165  11.347   4.185  1.00  0.00    +0.211 HD
ENDBRANCH  60  64
ENDBRANCH  54  55
ENDBRANCH   3  54
TORSDOF 11
ENDMDL
MODEL 8
REMARK VINA RESULT:    -6.237      2.514      6.526
REMARK INTER + INTRA:         -11.396
REMARK INTER:                  -8.923
REMARK INTRA:                  -2.473
REMARK UNBOUND:                -1.695
REMARK SMILES CC[C@H](C)[C@H]1O[C@]2(CC[C@@H]1C)C[C@@H]1C[C@@H](C/C=C(\C)[C@@H](O[C@H]3C[C@H](OC)[C@@H](O[C@H]4C[C@H](OC)[C@@H](O)[C@H](C)O4)[C@H](C)O3)[C@@H](C)/C=C/C=C3\CO[C@@H]4[C@H](O)C(C)=C[C@@H](C(=O)O1)[C@]34O)O2
REMARK SMILES IDX 41 1 22 2 27 3 24 4 23 5 39 6 40 7 21 8 20 9 6 10 7 11 5 12
REMARK SMILES IDX 62 13 8 14 12 15 10 16 15 17 9 18 13 19 14 20 16 21 59 22
REMARK SMILES IDX 17 23 57 24 18 25 58 26 56 27 60 28 55 29 42 30 50 31 47 32
REMARK SMILES IDX 53 33 44 34 49 35 51 36 48 37 46 38 45 39 11 40 19 41 43 42
REMARK SMILES IDX 54 43 3 44 4 45 2 46 1 47 61 48 52 50 25 52 26 53 28 54
REMARK SMILES IDX 29 55 38 56 30 57 36 58 31 59 34 60 37 61 32 62 33 63 35 64
REMARK H PARENT 61 49 52 51 35 65
ROOT
ATOM      1  O   UNL     1      -3.549  18.690   0.092  1.00  0.00    -0.347 OA
ATOM      2  C   UNL     1      -2.773  19.346   1.093  1.00  0.00    +0.253 C 
ATOM      3  C   UNL     1      -2.975  16.619   1.299  1.00  0.00    +0.179 C 
ATOM      4  C   UNL     1      -2.845  17.367   2.645  1.00  0.00    +0.154 C 
ATOM      5  C   UNL     1      -3.129  18.862   2.497  1.00  0.00    +0.097 C 
ATOM      6  C   UNL     1      -3.978  17.361   0.403  1.00  0.00    +0.150 C 
ATOM      7  C   UNL     1      -4.201  16.642  -0.926  1.00  0.00    +0.041 C 
ENDROOT
BRANCH   2   8
ATOM      8  O   UNL     1      -3.052  20.744   1.040  1.00  0.00    -0.344 OA
BRANCH   8   9
ATOM      9  C   UNL     1      -2.116  21.537   0.288  1.00  0.00    +0.153 C 
ATOM     10  O   UNL     1      -1.530  16.191  -4.479  1.00  0.00    -0.346 OA
ATOM     11  C   UNL     1      -0.469  16.993  -5.014  1.00  0.00    +0.172 C 
ATOM     12  C   UNL     1      -2.629  16.014  -5.376  1.00  0.00    +0.127 C 
ATOM     13  O   UNL     1      -0.739  18.392  -4.830  1.00  0.00    -0.346 OA
ATOM     14  C   UNL     1      -0.297  16.773  -6.532  1.00  0.00    +0.066 C 
ATOM     15  C   UNL     1       0.824  16.604  -4.277  1.00  0.00    +0.111 C 
ATOM     16  C   UNL     1      -2.181  15.094  -6.542  1.00  0.00    +0.015 C 
ATOM     17  C   UNL     1      -0.909  18.775  -3.459  1.00  0.00    +0.129 C 
ATOM     18  C   UNL     1      -0.718  15.368  -6.938  1.00  0.00    +0.011 C 
ATOM     19  C   UNL     1       0.727  16.971  -2.803  1.00  0.00    +0.184 C 
ATOM     20  C   UNL     1       0.347  18.436  -2.671  1.00  0.00    +0.078 C 
ATOM     21  C   UNL     1      -1.219  20.288  -3.412  1.00  0.00    +0.059 C 
ATOM     22  O   UNL     1       2.006  16.861  -2.149  1.00  0.00    -0.462 OA
ATOM     23  C   UNL     1      -1.219  20.847  -2.008  1.00  0.00    -0.023 C 
ATOM     24  C   UNL     1       2.323  15.678  -1.549  1.00  0.00    +0.316 C 
ATOM     25  C   UNL     1      -2.263  21.090  -1.187  1.00  0.00    -0.048 C 
ATOM     26  O   UNL     1       1.704  14.635  -1.693  1.00  0.00    -0.251 OA
ATOM     27  C   UNL     1       3.571  15.896  -0.694  1.00  0.00    +0.161 C 
ATOM     28  C   UNL     1       3.190  16.349   0.743  1.00  0.00    +0.134 C 
ATOM     29  C   UNL     1       4.493  14.701  -0.722  1.00  0.00    -0.007 C 
ATOM     30  C   UNL     1      -0.682  21.445   0.933  1.00  0.00    +0.042 C 
ATOM     31  C   UNL     1       4.439  16.447   1.618  1.00  0.00    +0.188 C 
ATOM     32  C   UNL     1       2.786  17.806   0.795  1.00  0.00    -0.009 C 
ATOM     33  C   UNL     1       5.316  14.396   0.297  1.00  0.00    -0.045 C 
ATOM     34  C   UNL     1      -0.163  20.018   1.026  1.00  0.00    -0.021 C 
ATOM     35  O   UNL     1       5.113  17.641   1.143  1.00  0.00    -0.367 OA
ATOM     36  C   UNL     1       5.342  15.198   1.576  1.00  0.00    +0.172 C 
ATOM     37  C   UNL     1       4.060  18.602   0.885  1.00  0.00    +0.195 C 
ATOM     38  C   UNL     1       1.526  18.267   0.861  1.00  0.00    +0.004 C 
ATOM     39  C   UNL     1       1.124  19.657   0.882  1.00  0.00    -0.004 C 
ATOM     40  C   UNL     1      -3.114  15.244  -7.747  1.00  0.00    +0.010 C 
ATOM     41  C   UNL     1      -3.695  20.938  -1.646  1.00  0.00    +0.042 C 
ATOM     42  C   UNL     1      -0.621  22.080   2.324  1.00  0.00    +0.015 C 
ATOM     43  C   UNL     1       6.224  13.199   0.243  1.00  0.00    +0.042 C 
BRANCH  12  44
ATOM     44  C   UNL     1      -3.850  15.481  -4.577  1.00  0.00    +0.015 C 
ATOM     45  C   UNL     1      -5.178  16.107  -5.035  1.00  0.00    +0.010 C 
BRANCH  44  46
ATOM     46  C   UNL     1      -3.996  13.943  -4.675  1.00  0.00    +0.002 C 
ATOM     47  C   UNL     1      -5.407  13.432  -4.418  1.00  0.00    +0.004 C 
ENDBRANCH  44  46
ENDBRANCH  12  44
BRANCH  28  48
ATOM     48  O   UNL     1       2.224  15.500   1.349  1.00  0.00    -0.381 OA
ATOM     49  H   UNL     1       2.532  14.579   1.280  1.00  0.00    +0.212 HD
ENDBRANCH  28  48
BRANCH  36  50
ATOM     50  O   UNL     1       6.690  15.584   1.854  1.00  0.00    -0.386 OA
ATOM     51  H   UNL     1       6.742  15.643   2.828  1.00  0.00    +0.211 HD
ENDBRANCH  36  50
ENDBRANCH   8   9
ENDBRANCH   2   8
BRANCH   4  52
ATOM     52  O   UNL     1      -1.500  17.168   3.129  1.00  0.00    -0.378 OA
ATOM     53  C   UNL     1      -1.165  18.027   4.215  1.00  0.00    +0.195 C 
ENDBRANCH   4  52
BRANCH   3  54
ATOM     54  O   UNL     1      -3.451  15.287   1.547  1.00  0.00    -0.344 OA
BRANCH  54  55
ATOM     55  C   UNL     1      -2.436  14.293   1.380  1.00  0.00    +0.253 C 
ATOM     56  O   UNL     1      -1.355  14.872   0.653  1.00  0.00    -0.347 OA
ATOM     57  C   UNL     1      -3.095  13.113   0.667  1.00  0.00    +0.097 C 
ATOM     58  C   UNL     1      -0.573  13.975  -0.135  1.00  0.00    +0.149 C 
ATOM     59  C   UNL     1      -2.925  13.237  -0.838  1.00  0.00    +0.154 C 
ATOM     60  C   UNL     1      -1.428  13.259  -1.204  1.00  0.00    +0.172 C 
ATOM     61  C   UNL     1       0.215  13.011   0.750  1.00  0.00    +0.041 C 
BRANCH  59  62
ATOM     62  O   UNL     1      -3.520  12.093  -1.479  1.00  0.00    -0.378 OA
ATOM     63  C   UNL     1      -2.646  10.972  -1.522  1.00  0.00    +0.195 C 
ENDBRANCH  59  62
BRANCH  60  64
ATOM     64  O   UNL     1      -1.304  13.949  -2.464  1.00  0.00    -0.388 OA
ATOM     65  H   UNL     1      -0.938  13.321  -3.108  1.00  0.00    +0.211 HD
ENDBRANCH  60  64
ENDBRANCH  54  55
ENDBRANCH   3  54
TORSDOF 11
ENDMDL
MODEL 9
REMARK VINA RESULT:    -6.164      2.433      8.905
REMARK INTER + INTRA:         -11.283
REMARK INTER:                  -9.093
REMARK INTRA:                  -2.190
REMARK UNBOUND:                -1.695
REMARK SMILES CC[C@H](C)[C@H]1O[C@]2(CC[C@@H]1C)C[C@@H]1C[C@@H](C/C=C(\C)[C@@H](O[C@H]3C[C@H](OC)[C@@H](O[C@H]4C[C@H](OC)[C@@H](O)[C@H](C)O4)[C@H](C)O3)[C@@H](C)/C=C/C=C3\CO[C@@H]4[C@H](O)C(C)=C[C@@H](C(=O)O1)[C@]34O)O2
REMARK SMILES IDX 41 1 22 2 27 3 24 4 23 5 39 6 40 7 21 8 20 9 6 10 7 11 5 12
REMARK SMILES IDX 62 13 8 14 12 15 10 16 15 17 9 18 13 19 14 20 16 21 59 22
REMARK SMILES IDX 17 23 57 24 18 25 58 26 56 27 60 28 55 29 42 30 50 31 47 32
REMARK SMILES IDX 53 33 44 34 49 35 51 36 48 37 46 38 45 39 11 40 19 41 43 42
REMARK SMILES IDX 54 43 3 44 4 45 2 46 1 47 61 48 52 50 25 52 26 53 28 54
REMARK SMILES IDX 29 55 38 56 30 57 36 58 31 59 34 60 37 61 32 62 33 63 35 64
REMARK H PARENT 61 49 52 51 35 65
ROOT
ATOM      1  O   UNL     1      -0.723  16.572  -4.650  1.00  0.00    -0.347 OA
ATOM      2  C   UNL     1      -1.161  17.923  -4.518  1.00  0.00    +0.253 C 
ATOM      3  C   UNL     1      -2.386  16.081  -2.898  1.00  0.00    +0.179 C 
ATOM      4  C   UNL     1      -3.277  17.269  -3.325  1.00  0.00    +0.154 C 
ATOM      5  C   UNL     1      -2.685  18.030  -4.512  1.00  0.00    +0.097 C 
ATOM      6  C   UNL     1      -1.600  15.574  -4.117  1.00  0.00    +0.150 C 
ATOM      7  C   UNL     1      -0.739  14.359  -3.780  1.00  0.00    +0.041 C 
ENDROOT
BRANCH   2   8
ATOM      8  O   UNL     1      -0.686  18.665  -5.640  1.00  0.00    -0.344 OA
BRANCH   8   9
ATOM      9  C   UNL     1       0.296  19.675  -5.348  1.00  0.00    +0.153 C 
ATOM     10  O   UNL     1       2.982  15.458  -0.185  1.00  0.00    -0.346 OA
ATOM     11  C   UNL     1       3.764  16.616   0.137  1.00  0.00    +0.172 C 
ATOM     12  C   UNL     1       3.759  14.338  -0.617  1.00  0.00    +0.127 C 
ATOM     13  O   UNL     1       4.062  17.380  -1.043  1.00  0.00    -0.346 OA
ATOM     14  C   UNL     1       5.120  16.230   0.767  1.00  0.00    +0.066 C 
ATOM     15  C   UNL     1       2.949  17.467   1.126  1.00  0.00    +0.111 C 
ATOM     16  C   UNL     1       4.549  13.779   0.595  1.00  0.00    +0.015 C 
ATOM     17  C   UNL     1       2.900  17.837  -1.746  1.00  0.00    +0.129 C 
ATOM     18  C   UNL     1       5.025  14.913   1.523  1.00  0.00    +0.011 C 
ATOM     19  C   UNL     1       1.685  17.991   0.459  1.00  0.00    +0.184 C 
ATOM     20  C   UNL     1       2.053  18.707  -0.829  1.00  0.00    +0.078 C 
ATOM     21  C   UNL     1       3.364  18.615  -2.998  1.00  0.00    +0.059 C 
ATOM     22  O   UNL     1       1.042  18.994   1.269  1.00  0.00    -0.462 OA
ATOM     23  C   UNL     1       2.231  19.317  -3.710  1.00  0.00    -0.023 C 
ATOM     24  C   UNL     1       0.080  18.593   2.149  1.00  0.00    +0.316 C 
ATOM     25  C   UNL     1       1.532  18.924  -4.796  1.00  0.00    -0.048 C 
ATOM     26  O   UNL     1      -0.141  17.433   2.459  1.00  0.00    -0.251 OA
ATOM     27  C   UNL     1      -0.642  19.836   2.667  1.00  0.00    +0.161 C 
ATOM     28  C   UNL     1      -1.844  20.204   1.753  1.00  0.00    +0.134 C 
ATOM     29  C   UNL     1      -1.012  19.711   4.125  1.00  0.00    -0.007 C 
ATOM     30  C   UNL     1      -0.331  20.799  -4.440  1.00  0.00    +0.042 C 
ATOM     31  C   UNL     1      -2.625  21.375   2.349  1.00  0.00    +0.188 C 
ATOM     32  C   UNL     1      -1.405  20.879   0.472  1.00  0.00    -0.009 C 
ATOM     33  C   UNL     1      -2.068  20.347   4.662  1.00  0.00    -0.045 C 
ATOM     34  C   UNL     1      -0.897  20.262  -3.133  1.00  0.00    -0.021 C 
ATOM     35  O   UNL     1      -1.770  22.524   2.121  1.00  0.00    -0.367 OA
ATOM     36  C   UNL     1      -3.001  21.196   3.833  1.00  0.00    +0.172 C 
ATOM     37  C   UNL     1      -1.211  22.334   0.798  1.00  0.00    +0.195 C 
ATOM     38  C   UNL     1      -1.320  20.291  -0.733  1.00  0.00    +0.004 C 
ATOM     39  C   UNL     1      -0.873  20.916  -1.959  1.00  0.00    -0.004 C 
ATOM     40  C   UNL     1       5.727  12.918   0.130  1.00  0.00    +0.010 C 
ATOM     41  C   UNL     1       1.902  17.686  -5.581  1.00  0.00    +0.042 C 
ATOM     42  C   UNL     1      -1.426  21.592  -5.159  1.00  0.00    +0.015 C 
ATOM     43  C   UNL     1      -2.415  20.204   6.118  1.00  0.00    +0.042 C 
BRANCH  12  44
ATOM     44  C   UNL     1       2.818  13.305  -1.296  1.00  0.00    +0.015 C 
ATOM     45  C   UNL     1       1.339  13.522  -0.935  1.00  0.00    +0.010 C 
BRANCH  44  46
ATOM     46  C   UNL     1       2.934  13.325  -2.840  1.00  0.00    +0.002 C 
ATOM     47  C   UNL     1       3.064  14.719  -3.437  1.00  0.00    +0.004 C 
ENDBRANCH  44  46
ENDBRANCH  12  44
BRANCH  28  48
ATOM     48  O   UNL     1      -2.708  19.101   1.513  1.00  0.00    -0.381 OA
ATOM     49  H   UNL     1      -3.549  19.435   1.153  1.00  0.00    +0.212 HD
ENDBRANCH  28  48
BRANCH  36  50
ATOM     50  O   UNL     1      -3.122  22.483   4.444  1.00  0.00    -0.386 OA
ATOM     51  H   UNL     1      -2.205  22.767   4.623  1.00  0.00    +0.211 HD
ENDBRANCH  36  50
ENDBRANCH   8   9
ENDBRANCH   2   8
BRANCH   4  52
ATOM     52  O   UNL     1      -3.406  18.151  -2.190  1.00  0.00    -0.378 OA
ATOM     53  C   UNL     1      -4.754  18.521  -1.921  1.00  0.00    +0.195 C 
ENDBRANCH   4  52
BRANCH   3  54
ATOM     54  O   UNL     1      -3.220  15.025  -2.397  1.00  0.00    -0.344 OA
BRANCH  54  55
ATOM     55  C   UNL     1      -3.154  14.891  -0.973  1.00  0.00    +0.253 C 
ATOM     56  O   UNL     1      -2.141  13.938  -0.659  1.00  0.00    -0.347 OA
ATOM     57  C   UNL     1      -4.551  14.480  -0.510  1.00  0.00    +0.097 C 
ATOM     58  C   UNL     1      -2.314  13.212   0.557  1.00  0.00    +0.149 C 
ATOM     59  C   UNL     1      -4.664  12.965  -0.437  1.00  0.00    +0.154 C 
ATOM     60  C   UNL     1      -3.630  12.403   0.557  1.00  0.00    +0.172 C 
ATOM     61  C   UNL     1      -2.173  14.131   1.769  1.00  0.00    +0.041 C 
BRANCH  59  62
ATOM     62  O   UNL     1      -5.976  12.610   0.040  1.00  0.00    -0.378 OA
ATOM     63  C   UNL     1      -7.011  13.339  -0.607  1.00  0.00    +0.195 C 
ENDBRANCH  59  62
BRANCH  60  64
ATOM     64  O   UNL     1      -3.358  11.040   0.169  1.00  0.00    -0.388 OA
ATOM     65  H   UNL     1      -2.700  11.064  -0.544  1.00  0.00    +0.211 HD
ENDBRANCH  60  64
ENDBRANCH  54  55
ENDBRANCH   3  54
TORSDOF 11
ENDMDL
