MODEL 1
REMARK VINA RESULT:   -12.170      0.000      0.000
REMARK INTER + INTRA:         -19.810
REMARK INTER:                 -18.928
REMARK INTRA:                  -0.882
REMARK UNBOUND:                -0.882
REMARK SMILES CC[C@H](C)[C@H]1O[C@]2(CC[C@@H]1C)C[C@@H]1C[C@@H](C/C=C(\C)[C@@H](O[C@H]3C[C@H](OC)[C@@H](O[C@H]4C[C@H](OC)[C@@H](O)[C@H](C)O4)[C@H](C)O3)[C@@H](C)/C=C/C=C3\CO[C@@H]4[C@H](O)C(C)=C[C@@H](C(=O)O1)[C@]34O)O2
REMARK SMILES IDX 41 1 22 2 27 3 24 4 23 5 39 6 40 7 21 8 20 9 6 10 7 11 5 12
REMARK SMILES IDX 62 13 8 14 12 15 10 16 15 17 9 18 13 19 14 20 16 21 59 22
REMARK SMILES IDX 17 23 57 24 18 25 58 26 56 27 60 28 55 29 42 30 50 31 47 32
REMARK SMILES IDX 53 33 44 34 49 35 51 36 48 37 46 38 45 39 11 40 19 41 43 42
REMARK SMILES IDX 54 43 3 44 4 45 2 46 1 47 61 48 52 50 25 52 26 53 28 54
REMARK SMILES IDX 29 55 38 56 30 57 36 58 31 59 34 60 37 61 32 62 33 63 35 64
REMARK H PARENT 61 49 52 51 35 65
ROOT
ATOM      1  O   UNL     1     -45.195  16.837  17.651  1.00  0.00    -0.347 OA
ATOM      2  C   UNL     1     -43.940  16.175  17.794  1.00  0.00    +0.253 C 
ATOM      3  C   UNL     1     -45.052  17.190  20.086  1.00  0.00    +0.179 C 
ATOM      4  C   UNL     1     -43.506  17.185  20.057  1.00  0.00    +0.154 C 
ATOM      5  C   UNL     1     -42.962  16.987  18.642  1.00  0.00    +0.097 C 
ATOM      6  C   UNL     1     -45.581  17.689  18.733  1.00  0.00    +0.150 C 
ATOM      7  C   UNL     1     -47.106  17.776  18.711  1.00  0.00    +0.041 C 
ENDROOT
BRANCH   2   8
ATOM      8  O   UNL     1     -43.357  16.024  16.500  1.00  0.00    -0.344 OA
BRANCH   8   9
ATOM      9  C   UNL     1     -41.948  16.305  16.416  1.00  0.00    +0.153 C 
ATOM     10  O   UNL     1     -42.639  17.244   9.324  1.00  0.00    -0.346 OA
ATOM     11  C   UNL     1     -41.207  17.302   9.350  1.00  0.00    +0.172 C 
ATOM     12  C   UNL     1     -43.259  18.460   8.900  1.00  0.00    +0.127 C 
ATOM     13  O   UNL     1     -40.737  17.875  10.581  1.00  0.00    -0.346 OA
ATOM     14  C   UNL     1     -40.651  18.185   8.212  1.00  0.00    +0.066 C 
ATOM     15  C   UNL     1     -40.681  15.864   9.203  1.00  0.00    +0.111 C 
ATOM     16  C   UNL     1     -42.988  18.660   7.386  1.00  0.00    +0.015 C 
ATOM     17  C   UNL     1     -41.152  17.159  11.751  1.00  0.00    +0.129 C 
ATOM     18  C   UNL     1     -41.576  18.176   7.003  1.00  0.00    +0.011 C 
ATOM     19  C   UNL     1     -41.086  15.025  10.407  1.00  0.00    +0.184 C 
ATOM     20  C   UNL     1     -40.647  15.725  11.682  1.00  0.00    +0.078 C 
ATOM     21  C   UNL     1     -40.604  17.896  12.993  1.00  0.00    +0.059 C 
ATOM     22  O   UNL     1     -40.394  13.762  10.423  1.00  0.00    -0.462 OA
ATOM     23  C   UNL     1     -40.807  17.123  14.276  1.00  0.00    -0.023 C 
ATOM     24  C   UNL     1     -40.992  12.691   9.825  1.00  0.00    +0.316 C 
ATOM     25  C   UNL     1     -41.773  17.258  15.209  1.00  0.00    -0.048 C 
ATOM     26  O   UNL     1     -41.970  12.756   9.097  1.00  0.00    -0.251 OA
ATOM     27  C   UNL     1     -40.221  11.432  10.219  1.00  0.00    +0.161 C 
ATOM     28  C   UNL     1     -40.785  10.821  11.532  1.00  0.00    +0.134 C 
ATOM     29  C   UNL     1     -40.136  10.440   9.083  1.00  0.00    -0.007 C 
ATOM     30  C   UNL     1     -41.124  14.963  16.403  1.00  0.00    +0.042 C 
ATOM     31  C   UNL     1     -40.084   9.500  11.847  1.00  0.00    +0.188 C 
ATOM     32  C   UNL     1     -40.340  11.589  12.758  1.00  0.00    -0.009 C 
ATOM     33  C   UNL     1     -40.028   9.115   9.285  1.00  0.00    -0.045 C 
ATOM     34  C   UNL     1     -41.516  14.035  15.262  1.00  0.00    -0.021 C 
ATOM     35  O   UNL     1     -38.763   9.898  12.297  1.00  0.00    -0.367 OA
ATOM     36  C   UNL     1     -40.038   8.509  10.668  1.00  0.00    +0.172 C 
ATOM     37  C   UNL     1     -38.971  11.077  13.111  1.00  0.00    +0.195 C 
ATOM     38  C   UNL     1     -41.088  12.470  13.443  1.00  0.00    +0.004 C 
ATOM     39  C   UNL     1     -40.666  13.233  14.598  1.00  0.00    -0.004 C 
ATOM     40  C   UNL     1     -43.196  20.122   6.980  1.00  0.00    +0.010 C 
ATOM     41  C   UNL     1     -42.792  18.373  15.151  1.00  0.00    +0.042 C 
ATOM     42  C   UNL     1     -41.236  14.192  17.721  1.00  0.00    +0.015 C 
ATOM     43  C   UNL     1     -39.947   8.150   8.135  1.00  0.00    +0.042 C 
BRANCH  12  44
ATOM     44  C   UNL     1     -44.765  18.416   9.277  1.00  0.00    +0.015 C 
ATOM     45  C   UNL     1     -44.998  18.449  10.797  1.00  0.00    +0.010 C 
BRANCH  44  46
ATOM     46  C   UNL     1     -45.565  19.586   8.653  1.00  0.00    +0.002 C 
ATOM     47  C   UNL     1     -45.864  20.723   9.619  1.00  0.00    +0.004 C 
ENDBRANCH  44  46
ENDBRANCH  12  44
BRANCH  28  48
ATOM     48  O   UNL     1     -42.194  10.638  11.492  1.00  0.00    -0.381 OA
ATOM     49  H   UNL     1     -42.619  11.390  11.940  1.00  0.00    +0.212 HD
ENDBRANCH  28  48
BRANCH  36  50
ATOM     50  O   UNL     1     -38.895   7.662  10.810  1.00  0.00    -0.386 OA
ATOM     51  H   UNL     1     -38.670   7.383   9.901  1.00  0.00    +0.211 HD
ENDBRANCH  36  50
ENDBRANCH   8   9
ENDBRANCH   2   8
BRANCH   4  52
ATOM     52  O   UNL     1     -43.055  16.115  20.912  1.00  0.00    -0.378 OA
ATOM     53  C   UNL     1     -42.047  16.522  21.832  1.00  0.00    +0.195 C 
ENDBRANCH   4  52
BRANCH   3  54
ATOM     54  O   UNL     1     -45.499  18.071  21.128  1.00  0.00    -0.344 OA
BRANCH  54  55
ATOM     55  C   UNL     1     -44.590  19.149  21.374  1.00  0.00    +0.253 C 
ATOM     56  O   UNL     1     -44.455  19.307  22.785  1.00  0.00    -0.347 OA
ATOM     57  C   UNL     1     -45.169  20.375  20.670  1.00  0.00    +0.097 C 
ATOM     58  C   UNL     1     -44.138  20.621  23.244  1.00  0.00    +0.149 C 
ATOM     59  C   UNL     1     -46.044  21.173  21.622  1.00  0.00    +0.154 C 
ATOM     60  C   UNL     1     -45.219  21.646  22.834  1.00  0.00    +0.172 C 
ATOM     61  C   UNL     1     -42.729  21.027  22.815  1.00  0.00    +0.041 C 
BRANCH  59  62
ATOM     62  O   UNL     1     -46.541  22.342  20.943  1.00  0.00    -0.378 OA
ATOM     63  C   UNL     1     -47.310  22.021  19.790  1.00  0.00    +0.195 C 
ENDBRANCH  59  62
BRANCH  60  64
ATOM     64  O   UNL     1     -46.137  21.843  23.929  1.00  0.00    -0.388 OA
ATOM     65  H   UNL     1     -45.636  22.232  24.665  1.00  0.00    +0.211 HD
ENDBRANCH  60  64
ENDBRANCH  54  55
ENDBRANCH   3  54
TORSDOF 11
ENDMDL
MODEL 2
REMARK VINA RESULT:   -11.257      1.062      2.256
REMARK INTER + INTRA:         -18.391
REMARK INTER:                 -17.377
REMARK INTRA:                  -1.014
REMARK UNBOUND:                -0.882
REMARK SMILES CC[C@H](C)[C@H]1O[C@]2(CC[C@@H]1C)C[C@@H]1C[C@@H](C/C=C(\C)[C@@H](O[C@H]3C[C@H](OC)[C@@H](O[C@H]4C[C@H](OC)[C@@H](O)[C@H](C)O4)[C@H](C)O3)[C@@H](C)/C=C/C=C3\CO[C@@H]4[C@H](O)C(C)=C[C@@H](C(=O)O1)[C@]34O)O2
REMARK SMILES IDX 41 1 22 2 27 3 24 4 23 5 39 6 40 7 21 8 20 9 6 10 7 11 5 12
REMARK SMILES IDX 62 13 8 14 12 15 10 16 15 17 9 18 13 19 14 20 16 21 59 22
REMARK SMILES IDX 17 23 57 24 18 25 58 26 56 27 60 28 55 29 42 30 50 31 47 32
REMARK SMILES IDX 53 33 44 34 49 35 51 36 48 37 46 38 45 39 11 40 19 41 43 42
REMARK SMILES IDX 54 43 3 44 4 45 2 46 1 47 61 48 52 50 25 52 26 53 28 54
REMARK SMILES IDX 29 55 38 56 30 57 36 58 31 59 34 60 37 61 32 62 33 63 35 64
REMARK H PARENT 61 49 52 51 35 65
ROOT
ATOM      1  O   UNL     1     -42.558  16.845  18.683  1.00  0.00    -0.347 OA
ATOM      2  C   UNL     1     -43.457  17.042  17.594  1.00  0.00    +0.253 C 
ATOM      3  C   UNL     1     -44.478  17.447  20.106  1.00  0.00    +0.179 C 
ATOM      4  C   UNL     1     -45.493  16.916  19.067  1.00  0.00    +0.154 C 
ATOM      5  C   UNL     1     -44.798  16.348  17.830  1.00  0.00    +0.097 C 
ATOM      6  C   UNL     1     -43.160  16.670  19.969  1.00  0.00    +0.150 C 
ATOM      7  C   UNL     1     -42.128  17.103  21.007  1.00  0.00    +0.041 C 
ENDROOT
BRANCH   2   8
ATOM      8  O   UNL     1     -42.882  16.468  16.421  1.00  0.00    -0.344 OA
BRANCH   8   9
ATOM      9  C   UNL     1     -41.487  16.750  16.211  1.00  0.00    +0.153 C 
ATOM     10  O   UNL     1     -42.762  17.428   9.170  1.00  0.00    -0.346 OA
ATOM     11  C   UNL     1     -41.333  17.491   9.076  1.00  0.00    +0.172 C 
ATOM     12  C   UNL     1     -43.421  18.626   8.755  1.00  0.00    +0.127 C 
ATOM     13  O   UNL     1     -40.767  18.110  10.243  1.00  0.00    -0.346 OA
ATOM     14  C   UNL     1     -40.878  18.333   7.865  1.00  0.00    +0.066 C 
ATOM     15  C   UNL     1     -40.813  16.050   8.939  1.00  0.00    +0.111 C 
ATOM     16  C   UNL     1     -43.277  18.771   7.218  1.00  0.00    +0.015 C 
ATOM     17  C   UNL     1     -41.081  17.435  11.468  1.00  0.00    +0.129 C 
ATOM     18  C   UNL     1     -41.898  18.278   6.738  1.00  0.00    +0.011 C 
ATOM     19  C   UNL     1     -41.113  15.254  10.202  1.00  0.00    +0.184 C 
ATOM     20  C   UNL     1     -40.575  16.002  11.409  1.00  0.00    +0.078 C 
ATOM     21  C   UNL     1     -40.437  18.219  12.633  1.00  0.00    +0.059 C 
ATOM     22  O   UNL     1     -40.414  13.994  10.206  1.00  0.00    -0.462 OA
ATOM     23  C   UNL     1     -40.530  17.493  13.956  1.00  0.00    -0.023 C 
ATOM     24  C   UNL     1     -41.053  12.901   9.698  1.00  0.00    +0.316 C 
ATOM     25  C   UNL     1     -41.417  17.659  14.959  1.00  0.00    -0.048 C 
ATOM     26  O   UNL     1     -42.088  12.937   9.051  1.00  0.00    -0.251 OA
ATOM     27  C   UNL     1     -40.245  11.659  10.073  1.00  0.00    +0.161 C 
ATOM     28  C   UNL     1     -40.696  11.095  11.449  1.00  0.00    +0.134 C 
ATOM     29  C   UNL     1     -40.248  10.627   8.970  1.00  0.00    -0.007 C 
ATOM     30  C   UNL     1     -40.659  15.411  16.178  1.00  0.00    +0.042 C 
ATOM     31  C   UNL     1     -39.964   9.788  11.753  1.00  0.00    +0.188 C 
ATOM     32  C   UNL     1     -40.157  11.908  12.605  1.00  0.00    -0.009 C 
ATOM     33  C   UNL     1     -40.116   9.311   9.211  1.00  0.00    -0.045 C 
ATOM     34  C   UNL     1     -41.137  14.441  15.108  1.00  0.00    -0.021 C 
ATOM     35  O   UNL     1     -38.612  10.206  12.078  1.00  0.00    -0.367 OA
ATOM     36  C   UNL     1     -40.009   8.755  10.610  1.00  0.00    +0.172 C 
ATOM     37  C   UNL     1     -38.760  11.414  12.863  1.00  0.00    +0.195 C 
ATOM     38  C   UNL     1     -40.851  12.812  13.318  1.00  0.00    +0.004 C 
ATOM     39  C   UNL     1     -40.340  13.617  14.406  1.00  0.00    -0.004 C 
ATOM     40  C   UNL     1     -43.526  20.217   6.778  1.00  0.00    +0.010 C 
ATOM     41  C   UNL     1     -42.443  18.769  14.946  1.00  0.00    +0.042 C 
ATOM     42  C   UNL     1     -40.657  14.689  17.528  1.00  0.00    +0.015 C 
ATOM     43  C   UNL     1     -40.124   8.304   8.093  1.00  0.00    +0.042 C 
BRANCH  12  44
ATOM     44  C   UNL     1     -44.892  18.592   9.256  1.00  0.00    +0.015 C 
ATOM     45  C   UNL     1     -44.996  18.385  10.776  1.00  0.00    +0.010 C 
BRANCH  44  46
ATOM     46  C   UNL     1     -45.667  19.885   8.902  1.00  0.00    +0.002 C 
ATOM     47  C   UNL     1     -45.436  21.036   9.871  1.00  0.00    +0.004 C 
ENDBRANCH  44  46
ENDBRANCH  12  44
BRANCH  28  48
ATOM     48  O   UNL     1     -42.102  10.907  11.531  1.00  0.00    -0.381 OA
ATOM     49  H   UNL     1     -42.485  11.638  12.047  1.00  0.00    +0.212 HD
ENDBRANCH  28  48
BRANCH  36  50
ATOM     50  O   UNL     1     -38.854   7.917  10.689  1.00  0.00    -0.386 OA
ATOM     51  H   UNL     1     -39.001   7.354  11.473  1.00  0.00    +0.211 HD
ENDBRANCH  36  50
ENDBRANCH   8   9
ENDBRANCH   2   8
BRANCH   4  52
ATOM     52  O   UNL     1     -46.349  18.015  18.690  1.00  0.00    -0.378 OA
ATOM     53  C   UNL     1     -47.718  17.791  19.012  1.00  0.00    +0.195 C 
ENDBRANCH   4  52
BRANCH   3  54
ATOM     54  O   UNL     1     -45.012  17.253  21.424  1.00  0.00    -0.344 OA
BRANCH  54  55
ATOM     55  C   UNL     1     -45.274  18.483  22.107  1.00  0.00    +0.253 C 
ATOM     56  O   UNL     1     -44.701  19.547  21.350  1.00  0.00    -0.347 OA
ATOM     57  C   UNL     1     -44.683  18.337  23.508  1.00  0.00    +0.097 C 
ATOM     58  C   UNL     1     -44.299  20.700  22.088  1.00  0.00    +0.149 C 
ATOM     59  C   UNL     1     -43.258  18.865  23.544  1.00  0.00    +0.154 C 
ATOM     60  C   UNL     1     -43.233  20.355  23.151  1.00  0.00    +0.172 C 
ATOM     61  C   UNL     1     -45.509  21.432  22.664  1.00  0.00    +0.041 C 
BRANCH  59  62
ATOM     62  O   UNL     1     -42.742  18.752  24.884  1.00  0.00    -0.378 OA
ATOM     63  C   UNL     1     -41.593  17.919  24.961  1.00  0.00    +0.195 C 
ENDBRANCH  59  62
BRANCH  60  64
ATOM     64  O   UNL     1     -41.919  20.640  22.628  1.00  0.00    -0.388 OA
ATOM     65  H   UNL     1     -41.985  21.449  22.095  1.00  0.00    +0.211 HD
ENDBRANCH  60  64
ENDBRANCH  54  55
ENDBRANCH   3  54
TORSDOF 11
ENDMDL
MODEL 3
REMARK VINA RESULT:   -11.220      1.071      2.054
REMARK INTER + INTRA:         -18.334
REMARK INTER:                 -17.542
REMARK INTRA:                  -0.792
REMARK UNBOUND:                -0.882
REMARK SMILES CC[C@H](C)[C@H]1O[C@]2(CC[C@@H]1C)C[C@@H]1C[C@@H](C/C=C(\C)[C@@H](O[C@H]3C[C@H](OC)[C@@H](O[C@H]4C[C@H](OC)[C@@H](O)[C@H](C)O4)[C@H](C)O3)[C@@H](C)/C=C/C=C3\CO[C@@H]4[C@H](O)C(C)=C[C@@H](C(=O)O1)[C@]34O)O2
REMARK SMILES IDX 41 1 22 2 27 3 24 4 23 5 39 6 40 7 21 8 20 9 6 10 7 11 5 12
REMARK SMILES IDX 62 13 8 14 12 15 10 16 15 17 9 18 13 19 14 20 16 21 59 22
REMARK SMILES IDX 17 23 57 24 18 25 58 26 56 27 60 28 55 29 42 30 50 31 47 32
REMARK SMILES IDX 53 33 44 34 49 35 51 36 48 37 46 38 45 39 11 40 19 41 43 42
REMARK SMILES IDX 54 43 3 44 4 45 2 46 1 47 61 48 52 50 25 52 26 53 28 54
REMARK SMILES IDX 29 55 38 56 30 57 36 58 31 59 34 60 37 61 32 62 33 63 35 64
REMARK H PARENT 61 49 52 51 35 65
ROOT
ATOM      1  O   UNL     1     -43.047  17.924  18.165  1.00  0.00    -0.347 OA
ATOM      2  C   UNL     1     -43.963  17.246  17.306  1.00  0.00    +0.253 C 
ATOM      3  C   UNL     1     -45.052  18.591  19.433  1.00  0.00    +0.179 C 
ATOM      4  C   UNL     1     -45.824  17.325  18.997  1.00  0.00    +0.154 C 
ATOM      5  C   UNL     1     -44.980  16.424  18.096  1.00  0.00    +0.097 C 
ATOM      6  C   UNL     1     -43.547  18.283  19.456  1.00  0.00    +0.150 C 
ATOM      7  C   UNL     1     -42.725  19.477  19.936  1.00  0.00    +0.041 C 
ENDROOT
BRANCH   2   8
ATOM      8  O   UNL     1     -43.228  16.340  16.485  1.00  0.00    -0.344 OA
BRANCH   8   9
ATOM      9  C   UNL     1     -41.821  16.613  16.361  1.00  0.00    +0.153 C 
ATOM     10  O   UNL     1     -42.666  17.356   9.263  1.00  0.00    -0.346 OA
ATOM     11  C   UNL     1     -41.233  17.408   9.255  1.00  0.00    +0.172 C 
ATOM     12  C   UNL     1     -43.290  18.562   8.818  1.00  0.00    +0.127 C 
ATOM     13  O   UNL     1     -40.734  18.013  10.459  1.00  0.00    -0.346 OA
ATOM     14  C   UNL     1     -40.700  18.256   8.080  1.00  0.00    +0.066 C 
ATOM     15  C   UNL     1     -40.716  15.964   9.137  1.00  0.00    +0.111 C 
ATOM     16  C   UNL     1     -43.052  18.718   7.294  1.00  0.00    +0.015 C 
ATOM     17  C   UNL     1     -41.126  17.332  11.657  1.00  0.00    +0.129 C 
ATOM     18  C   UNL     1     -41.651  18.217   6.894  1.00  0.00    +0.011 C 
ATOM     19  C   UNL     1     -41.097  15.161  10.373  1.00  0.00    +0.184 C 
ATOM     20  C   UNL     1     -40.627  15.895  11.617  1.00  0.00    +0.078 C 
ATOM     21  C   UNL     1     -40.547  18.102  12.865  1.00  0.00    +0.059 C 
ATOM     22  O   UNL     1     -40.409  13.896  10.410  1.00  0.00    -0.462 OA
ATOM     23  C   UNL     1     -40.725  17.366  14.174  1.00  0.00    -0.023 C 
ATOM     24  C   UNL     1     -41.024  12.811   9.855  1.00  0.00    +0.316 C 
ATOM     25  C   UNL     1     -41.669  17.531  15.124  1.00  0.00    -0.048 C 
ATOM     26  O   UNL     1     -42.018  12.860   9.148  1.00  0.00    -0.251 OA
ATOM     27  C   UNL     1     -40.250  11.560  10.267  1.00  0.00    +0.161 C 
ATOM     28  C   UNL     1     -40.786  10.989  11.609  1.00  0.00    +0.134 C 
ATOM     29  C   UNL     1     -40.193  10.537   9.158  1.00  0.00    -0.007 C 
ATOM     30  C   UNL     1     -41.002  15.267  16.368  1.00  0.00    +0.042 C 
ATOM     31  C   UNL     1     -40.083   9.675  11.946  1.00  0.00    +0.188 C 
ATOM     32  C   UNL     1     -40.311  11.789  12.803  1.00  0.00    -0.009 C 
ATOM     33  C   UNL     1     -40.086   9.218   9.395  1.00  0.00    -0.045 C 
ATOM     34  C   UNL     1     -41.422  14.310  15.262  1.00  0.00    -0.021 C 
ATOM     35  O   UNL     1     -38.751  10.079  12.355  1.00  0.00    -0.367 OA
ATOM     36  C   UNL     1     -40.067   8.651  10.794  1.00  0.00    +0.172 C 
ATOM     37  C   UNL     1     -38.936  11.282  13.140  1.00  0.00    +0.195 C 
ATOM     38  C   UNL     1     -41.041  12.692  13.479  1.00  0.00    +0.004 C 
ATOM     39  C   UNL     1     -40.590  13.485  14.603  1.00  0.00    -0.004 C 
ATOM     40  C   UNL     1     -43.264  20.168   6.852  1.00  0.00    +0.010 C 
ATOM     41  C   UNL     1     -42.685  18.649  15.058  1.00  0.00    +0.042 C 
ATOM     42  C   UNL     1     -41.087  14.535  17.709  1.00  0.00    +0.015 C 
ATOM     43  C   UNL     1     -40.033   8.220   8.271  1.00  0.00    +0.042 C 
BRANCH  12  44
ATOM     44  C   UNL     1     -44.788  18.535   9.230  1.00  0.00    +0.015 C 
ATOM     45  C   UNL     1     -44.984  18.369  10.746  1.00  0.00    +0.010 C 
BRANCH  44  46
ATOM     46  C   UNL     1     -45.544  19.814   8.793  1.00  0.00    +0.002 C 
ATOM     47  C   UNL     1     -45.472  20.955   9.799  1.00  0.00    +0.004 C 
ENDBRANCH  44  46
ENDBRANCH  12  44
BRANCH  28  48
ATOM     48  O   UNL     1     -42.196  10.811  11.605  1.00  0.00    -0.381 OA
ATOM     49  H   UNL     1     -42.553  11.161  10.770  1.00  0.00    +0.212 HD
ENDBRANCH  28  48
BRANCH  36  50
ATOM     50  O   UNL     1     -38.924   7.803  10.935  1.00  0.00    -0.386 OA
ATOM     51  H   UNL     1     -39.108   7.258  11.725  1.00  0.00    +0.211 HD
ENDBRANCH  36  50
ENDBRANCH   8   9
ENDBRANCH   2   8
BRANCH   4  52
ATOM     52  O   UNL     1     -47.008  17.754  18.294  1.00  0.00    -0.378 OA
ATOM     53  C   UNL     1     -48.207  17.531  19.030  1.00  0.00    +0.195 C 
ENDBRANCH   4  52
BRANCH   3  54
ATOM     54  O   UNL     1     -45.481  18.972  20.749  1.00  0.00    -0.344 OA
BRANCH  54  55
ATOM     55  C   UNL     1     -46.268  20.167  20.755  1.00  0.00    +0.253 C 
ATOM     56  O   UNL     1     -46.016  20.876  19.544  1.00  0.00    -0.347 OA
ATOM     57  C   UNL     1     -45.877  20.940  22.013  1.00  0.00    +0.097 C 
ATOM     58  C   UNL     1     -46.173  22.294  19.599  1.00  0.00    +0.149 C 
ATOM     59  C   UNL     1     -44.762  21.927  21.708  1.00  0.00    +0.154 C 
ATOM     60  C   UNL     1     -45.222  22.934  20.635  1.00  0.00    +0.172 C 
ATOM     61  C   UNL     1     -47.637  22.677  19.808  1.00  0.00    +0.041 C 
BRANCH  59  62
ATOM     62  O   UNL     1     -44.443  22.668  22.901  1.00  0.00    -0.378 OA
ATOM     63  C   UNL     1     -45.597  23.008  23.660  1.00  0.00    +0.195 C 
ENDBRANCH  59  62
BRANCH  60  64
ATOM     64  O   UNL     1     -44.040  23.422  19.968  1.00  0.00    -0.388 OA
ATOM     65  H   UNL     1     -43.666  24.131  20.517  1.00  0.00    +0.211 HD
ENDBRANCH  60  64
ENDBRANCH  54  55
ENDBRANCH   3  54
TORSDOF 11
ENDMDL
MODEL 4
REMARK VINA RESULT:   -10.789      2.846     11.294
REMARK INTER + INTRA:         -17.662
REMARK INTER:                 -17.042
REMARK INTRA:                  -0.620
REMARK UNBOUND:                -0.882
REMARK SMILES CC[C@H](C)[C@H]1O[C@]2(CC[C@@H]1C)C[C@@H]1C[C@@H](C/C=C(\C)[C@@H](O[C@H]3C[C@H](OC)[C@@H](O[C@H]4C[C@H](OC)[C@@H](O)[C@H](C)O4)[C@H](C)O3)[C@@H](C)/C=C/C=C3\CO[C@@H]4[C@H](O)C(C)=C[C@@H](C(=O)O1)[C@]34O)O2
REMARK SMILES IDX 41 1 22 2 27 3 24 4 23 5 39 6 40 7 21 8 20 9 6 10 7 11 5 12
REMARK SMILES IDX 62 13 8 14 12 15 10 16 15 17 9 18 13 19 14 20 16 21 59 22
REMARK SMILES IDX 17 23 57 24 18 25 58 26 56 27 60 28 55 29 42 30 50 31 47 32
REMARK SMILES IDX 53 33 44 34 49 35 51 36 48 37 46 38 45 39 11 40 19 41 43 42
REMARK SMILES IDX 54 43 3 44 4 45 2 46 1 47 61 48 52 50 25 52 26 53 28 54
REMARK SMILES IDX 29 55 38 56 30 57 36 58 31 59 34 60 37 61 32 62 33 63 35 64
REMARK H PARENT 61 49 52 51 35 65
ROOT
ATOM      1  O   UNL     1     -38.751  10.273  16.535  1.00  0.00    -0.347 OA
ATOM      2  C   UNL     1     -40.160  10.474  16.625  1.00  0.00    +0.253 C 
ATOM      3  C   UNL     1     -39.325   7.920  16.081  1.00  0.00    +0.179 C 
ATOM      4  C   UNL     1     -40.685   8.308  15.458  1.00  0.00    +0.154 C 
ATOM      5  C   UNL     1     -40.903   9.821  15.461  1.00  0.00    +0.097 C 
ATOM      6  C   UNL     1     -38.330   9.072  15.881  1.00  0.00    +0.150 C 
ATOM      7  C   UNL     1     -36.942   8.733  16.422  1.00  0.00    +0.041 C 
ENDROOT
BRANCH   2   8
ATOM      8  O   UNL     1     -40.423  11.875  16.566  1.00  0.00    -0.344 OA
BRANCH   8   9
ATOM      9  C   UNL     1     -39.284  12.711  16.294  1.00  0.00    +0.153 C 
ATOM     10  O   UNL     1     -43.005  18.406  18.613  1.00  0.00    -0.346 OA
ATOM     11  C   UNL     1     -41.885  19.146  18.110  1.00  0.00    +0.172 C 
ATOM     12  C   UNL     1     -43.183  18.518  20.027  1.00  0.00    +0.127 C 
ATOM     13  O   UNL     1     -40.669  18.392  18.240  1.00  0.00    -0.346 OA
ATOM     14  C   UNL     1     -41.674  20.462  18.890  1.00  0.00    +0.066 C 
ATOM     15  C   UNL     1     -42.159  19.453  16.627  1.00  0.00    +0.111 C 
ATOM     16  C   UNL     1     -43.661  19.955  20.360  1.00  0.00    +0.015 C 
ATOM     17  C   UNL     1     -40.689  17.135  17.552  1.00  0.00    +0.129 C 
ATOM     18  C   UNL     1     -42.988  20.994  19.442  1.00  0.00    +0.011 C 
ATOM     19  C   UNL     1     -42.204  18.164  15.818  1.00  0.00    +0.184 C 
ATOM     20  C   UNL     1     -40.937  17.365  16.069  1.00  0.00    +0.078 C 
ATOM     21  C   UNL     1     -39.339  16.424  17.800  1.00  0.00    +0.059 C 
ATOM     22  O   UNL     1     -42.197  18.433  14.403  1.00  0.00    -0.462 OA
ATOM     23  C   UNL     1     -39.165  15.180  16.959  1.00  0.00    -0.023 C 
ATOM     24  C   UNL     1     -43.396  18.551  13.763  1.00  0.00    +0.316 C 
ATOM     25  C   UNL     1     -39.367  13.888  17.296  1.00  0.00    -0.048 C 
ATOM     26  O   UNL     1     -44.477  18.653  14.322  1.00  0.00    -0.251 OA
ATOM     27  C   UNL     1     -43.138  18.541  12.257  1.00  0.00    +0.161 C 
ATOM     28  C   UNL     1     -43.153  17.092  11.697  1.00  0.00    +0.134 C 
ATOM     29  C   UNL     1     -44.060  19.481  11.517  1.00  0.00    -0.007 C 
ATOM     30  C   UNL     1     -39.225  13.069  14.761  1.00  0.00    +0.042 C 
ATOM     31  C   UNL     1     -43.012  17.108  10.176  1.00  0.00    +0.188 C 
ATOM     32  C   UNL     1     -41.878  16.342  12.015  1.00  0.00    -0.009 C 
ATOM     33  C   UNL     1     -44.426  19.279  10.239  1.00  0.00    -0.045 C 
ATOM     34  C   UNL     1     -40.483  13.765  14.263  1.00  0.00    -0.021 C 
ATOM     35  O   UNL     1     -41.620  17.454   9.952  1.00  0.00    -0.367 OA
ATOM     36  C   UNL     1     -43.986  18.064   9.459  1.00  0.00    +0.172 C 
ATOM     37  C   UNL     1     -40.876  16.734  10.964  1.00  0.00    +0.195 C 
ATOM     38  C   UNL     1     -41.731  15.425  12.987  1.00  0.00    +0.004 C 
ATOM     39  C   UNL     1     -40.510  14.722  13.321  1.00  0.00    -0.004 C 
ATOM     40  C   UNL     1     -43.417  20.285  21.835  1.00  0.00    +0.010 C 
ATOM     41  C   UNL     1     -39.703  13.472  18.709  1.00  0.00    +0.042 C 
ATOM     42  C   UNL     1     -38.962  11.844  13.881  1.00  0.00    +0.015 C 
ATOM     43  C   UNL     1     -45.347  20.230   9.527  1.00  0.00    +0.042 C 
BRANCH  12  44
ATOM     44  C   UNL     1     -44.149  17.398  20.503  1.00  0.00    +0.015 C 
ATOM     45  C   UNL     1     -45.031  16.852  19.368  1.00  0.00    +0.010 C 
BRANCH  44  46
ATOM     46  C   UNL     1     -43.399  16.200  21.136  1.00  0.00    +0.002 C 
ATOM     47  C   UNL     1     -41.893  16.219  20.914  1.00  0.00    +0.004 C 
ENDBRANCH  44  46
ENDBRANCH  12  44
BRANCH  28  48
ATOM     48  O   UNL     1     -44.315  16.368  12.081  1.00  0.00    -0.381 OA
ATOM     49  H   UNL     1     -44.529  16.588  13.005  1.00  0.00    +0.212 HD
ENDBRANCH  28  48
BRANCH  36  50
ATOM     50  O   UNL     1     -43.401  18.492   8.227  1.00  0.00    -0.386 OA
ATOM     51  H   UNL     1     -43.319  19.462   8.307  1.00  0.00    +0.211 HD
ENDBRANCH  36  50
ENDBRANCH   8   9
ENDBRANCH   2   8
BRANCH   4  52
ATOM     52  O   UNL     1     -41.720   7.660  16.227  1.00  0.00    -0.378 OA
ATOM     53  C   UNL     1     -41.340   7.413  17.578  1.00  0.00    +0.195 C 
ENDBRANCH   4  52
BRANCH   3  54
ATOM     54  O   UNL     1     -38.829   6.742  15.427  1.00  0.00    -0.344 OA
BRANCH  54  55
ATOM     55  C   UNL     1     -39.301   6.610  14.082  1.00  0.00    +0.253 C 
ATOM     56  O   UNL     1     -39.032   5.281  13.640  1.00  0.00    -0.347 OA
ATOM     57  C   UNL     1     -38.590   7.687  13.264  1.00  0.00    +0.097 C 
ATOM     58  C   UNL     1     -38.837   5.111  12.237  1.00  0.00    +0.149 C 
ATOM     59  C   UNL     1     -37.316   7.133  12.647  1.00  0.00    +0.154 C 
ATOM     60  C   UNL     1     -37.646   5.947  11.720  1.00  0.00    +0.172 C 
ATOM     61  C   UNL     1     -40.132   5.368  11.468  1.00  0.00    +0.041 C 
BRANCH  59  62
ATOM     62  O   UNL     1     -36.690   8.157  11.850  1.00  0.00    -0.378 OA
ATOM     63  C   UNL     1     -37.437   8.476  10.683  1.00  0.00    +0.195 C 
ENDBRANCH  59  62
BRANCH  60  64
ATOM     64  O   UNL     1     -36.468   5.117  11.648  1.00  0.00    -0.388 OA
ATOM     65  H   UNL     1     -35.843   5.547  11.042  1.00  0.00    +0.211 HD
ENDBRANCH  60  64
ENDBRANCH  54  55
ENDBRANCH   3  54
TORSDOF 11
ENDMDL
MODEL 5
REMARK VINA RESULT:    -9.845      2.540      3.998
REMARK INTER + INTRA:         -16.194
REMARK INTER:                 -16.885
REMARK INTRA:                   0.691
REMARK UNBOUND:                -0.882
REMARK SMILES CC[C@H](C)[C@H]1O[C@]2(CC[C@@H]1C)C[C@@H]1C[C@@H](C/C=C(\C)[C@@H](O[C@H]3C[C@H](OC)[C@@H](O[C@H]4C[C@H](OC)[C@@H](O)[C@H](C)O4)[C@H](C)O3)[C@@H](C)/C=C/C=C3\CO[C@@H]4[C@H](O)C(C)=C[C@@H](C(=O)O1)[C@]34O)O2
REMARK SMILES IDX 41 1 22 2 27 3 24 4 23 5 39 6 40 7 21 8 20 9 6 10 7 11 5 12
REMARK SMILES IDX 62 13 8 14 12 15 10 16 15 17 9 18 13 19 14 20 16 21 59 22
REMARK SMILES IDX 17 23 57 24 18 25 58 26 56 27 60 28 55 29 42 30 50 31 47 32
REMARK SMILES IDX 53 33 44 34 49 35 51 36 48 37 46 38 45 39 11 40 19 41 43 42
REMARK SMILES IDX 54 43 3 44 4 45 2 46 1 47 61 48 52 50 25 52 26 53 28 54
REMARK SMILES IDX 29 55 38 56 30 57 36 58 31 59 34 60 37 61 32 62 33 63 35 64
REMARK H PARENT 61 49 52 51 35 65
ROOT
ATOM      1  O   UNL     1     -44.002  18.695  18.100  1.00  0.00    -0.347 OA
ATOM      2  C   UNL     1     -43.011  19.678  18.394  1.00  0.00    +0.253 C 
ATOM      3  C   UNL     1     -44.281  18.545  20.544  1.00  0.00    +0.179 C 
ATOM      4  C   UNL     1     -43.840  20.013  20.746  1.00  0.00    +0.154 C 
ATOM      5  C   UNL     1     -43.507  20.696  19.419  1.00  0.00    +0.097 C 
ATOM      6  C   UNL     1     -44.920  18.396  19.155  1.00  0.00    +0.150 C 
ATOM      7  C   UNL     1     -45.435  16.979  18.910  1.00  0.00    +0.041 C 
ENDROOT
BRANCH   2   8
ATOM      8  O   UNL     1     -42.710  20.391  17.196  1.00  0.00    -0.344 OA
BRANCH   8   9
ATOM      9  C   UNL     1     -41.317  20.453  16.842  1.00  0.00    +0.153 C 
ATOM     10  O   UNL     1     -42.857  17.340  10.549  1.00  0.00    -0.346 OA
ATOM     11  C   UNL     1     -41.431  17.277  10.410  1.00  0.00    +0.172 C 
ATOM     12  C   UNL     1     -43.497  18.163   9.571  1.00  0.00    +0.127 C 
ATOM     13  O   UNL     1     -40.801  18.394  11.056  1.00  0.00    -0.346 OA
ATOM     14  C   UNL     1     -41.001  17.323   8.928  1.00  0.00    +0.066 C 
ATOM     15  C   UNL     1     -40.960  15.961  11.052  1.00  0.00    +0.111 C 
ATOM     16  C   UNL     1     -43.411  17.461   8.191  1.00  0.00    +0.015 C 
ATOM     17  C   UNL     1     -41.084  18.490  12.457  1.00  0.00    +0.129 C 
ATOM     18  C   UNL     1     -42.068  16.724   8.023  1.00  0.00    +0.011 C 
ATOM     19  C   UNL     1     -41.232  15.974  12.550  1.00  0.00    +0.184 C 
ATOM     20  C   UNL     1     -40.623  17.224  13.163  1.00  0.00    +0.078 C 
ATOM     21  C   UNL     1     -40.370  19.743  13.013  1.00  0.00    +0.059 C 
ATOM     22  O   UNL     1     -40.571  14.879  13.213  1.00  0.00    -0.462 OA
ATOM     23  C   UNL     1     -40.431  19.836  14.521  1.00  0.00    -0.023 C 
ATOM     24  C   UNL     1     -41.262  13.714  13.378  1.00  0.00    +0.316 C 
ATOM     25  C   UNL     1     -41.271  20.553  15.297  1.00  0.00    -0.048 C 
ATOM     26  O   UNL     1     -42.321  13.448  12.831  1.00  0.00    -0.251 OA
ATOM     27  C   UNL     1     -40.477  12.825  14.342  1.00  0.00    +0.161 C 
ATOM     28  C   UNL     1     -40.888  13.101  15.815  1.00  0.00    +0.134 C 
ATOM     29  C   UNL     1     -40.556  11.367  13.960  1.00  0.00    -0.007 C 
ATOM     30  C   UNL     1     -40.531  19.265  17.513  1.00  0.00    +0.042 C 
ATOM     31  C   UNL     1     -40.183  12.124  16.755  1.00  0.00    +0.188 C 
ATOM     32  C   UNL     1     -40.278  14.379  16.350  1.00  0.00    -0.009 C 
ATOM     33  C   UNL     1     -40.453  10.375  14.863  1.00  0.00    -0.045 C 
ATOM     34  C   UNL     1     -41.081  17.898  17.134  1.00  0.00    -0.021 C 
ATOM     35  O   UNL     1     -38.808  12.587  16.782  1.00  0.00    -0.367 OA
ATOM     36  C   UNL     1     -40.306  10.645  16.341  1.00  0.00    +0.172 C 
ATOM     37  C   UNL     1     -38.888  14.033  16.805  1.00  0.00    +0.195 C 
ATOM     38  C   UNL     1     -40.916  15.554  16.483  1.00  0.00    +0.004 C 
ATOM     39  C   UNL     1     -40.338  16.790  16.964  1.00  0.00    -0.004 C 
ATOM     40  C   UNL     1     -43.635  18.461   7.053  1.00  0.00    +0.010 C 
ATOM     41  C   UNL     1     -42.264  21.531  14.713  1.00  0.00    +0.042 C 
ATOM     42  C   UNL     1     -40.496  19.372  19.040  1.00  0.00    +0.015 C 
ATOM     43  C   UNL     1     -40.536   8.930  14.455  1.00  0.00    +0.042 C 
BRANCH  12  44
ATOM     44  C   UNL     1     -44.946  18.470  10.041  1.00  0.00    +0.015 C 
ATOM     45  C   UNL     1     -45.102  18.400  11.569  1.00  0.00    +0.010 C 
BRANCH  44  46
ATOM     46  C   UNL     1     -45.434  19.865   9.580  1.00  0.00    +0.002 C 
ATOM     47  C   UNL     1     -45.852  20.787  10.717  1.00  0.00    +0.004 C 
ENDBRANCH  44  46
ENDBRANCH  12  44
BRANCH  28  48
ATOM     48  O   UNL     1     -42.295  13.052  16.011  1.00  0.00    -0.381 OA
ATOM     49  H   UNL     1     -42.473  12.782  16.929  1.00  0.00    +0.212 HD
ENDBRANCH  28  48
BRANCH  36  50
ATOM     50  O   UNL     1     -39.173   9.924  16.832  1.00  0.00    -0.386 OA
ATOM     51  H   UNL     1     -39.464   9.544  17.684  1.00  0.00    +0.211 HD
ENDBRANCH  36  50
ENDBRANCH   8   9
ENDBRANCH   2   8
BRANCH   4  52
ATOM     52  O   UNL     1     -42.679  20.008  21.602  1.00  0.00    -0.378 OA
ATOM     53  C   UNL     1     -42.824  20.845  22.745  1.00  0.00    +0.195 C 
ENDBRANCH   4  52
BRANCH   3  54
ATOM     54  O   UNL     1     -45.244  18.203  21.552  1.00  0.00    -0.344 OA
BRANCH  54  55
ATOM     55  C   UNL     1     -44.747  17.253  22.500  1.00  0.00    +0.253 C 
ATOM     56  O   UNL     1     -44.151  17.968  23.580  1.00  0.00    -0.347 OA
ATOM     57  C   UNL     1     -43.770  16.355  21.743  1.00  0.00    +0.097 C 
ATOM     58  C   UNL     1     -43.099  17.298  24.275  1.00  0.00    +0.149 C 
ATOM     59  C   UNL     1     -42.352  16.894  21.856  1.00  0.00    +0.154 C 
ATOM     60  C   UNL     1     -41.923  16.954  23.334  1.00  0.00    +0.172 C 
ATOM     61  C   UNL     1     -43.630  16.089  25.042  1.00  0.00    +0.041 C 
BRANCH  59  62
ATOM     62  O   UNL     1     -41.450  16.006  21.168  1.00  0.00    -0.378 OA
ATOM     63  C   UNL     1     -41.839  15.764  19.822  1.00  0.00    +0.195 C 
ENDBRANCH  59  62
BRANCH  60  64
ATOM     64  O   UNL     1     -40.903  17.968  23.445  1.00  0.00    -0.388 OA
ATOM     65  H   UNL     1     -40.684  18.263  22.546  1.00  0.00    +0.211 HD
ENDBRANCH  60  64
ENDBRANCH  54  55
ENDBRANCH   3  54
TORSDOF 11
ENDMDL
MODEL 6
REMARK VINA RESULT:    -9.620      2.000      3.091
REMARK INTER + INTRA:         -15.844
REMARK INTER:                 -15.836
REMARK INTRA:                  -0.008
REMARK UNBOUND:                -0.882
REMARK SMILES CC[C@H](C)[C@H]1O[C@]2(CC[C@@H]1C)C[C@@H]1C[C@@H](C/C=C(\C)[C@@H](O[C@H]3C[C@H](OC)[C@@H](O[C@H]4C[C@H](OC)[C@@H](O)[C@H](C)O4)[C@H](C)O3)[C@@H](C)/C=C/C=C3\CO[C@@H]4[C@H](O)C(C)=C[C@@H](C(=O)O1)[C@]34O)O2
REMARK SMILES IDX 41 1 22 2 27 3 24 4 23 5 39 6 40 7 21 8 20 9 6 10 7 11 5 12
REMARK SMILES IDX 62 13 8 14 12 15 10 16 15 17 9 18 13 19 14 20 16 21 59 22
REMARK SMILES IDX 17 23 57 24 18 25 58 26 56 27 60 28 55 29 42 30 50 31 47 32
REMARK SMILES IDX 53 33 44 34 49 35 51 36 48 37 46 38 45 39 11 40 19 41 43 42
REMARK SMILES IDX 54 43 3 44 4 45 2 46 1 47 61 48 52 50 25 52 26 53 28 54
REMARK SMILES IDX 29 55 38 56 30 57 36 58 31 59 34 60 37 61 32 62 33 63 35 64
REMARK H PARENT 61 49 52 51 35 65
ROOT
ATOM      1  O   UNL     1     -43.017  20.640  18.013  1.00  0.00    -0.347 OA
ATOM      2  C   UNL     1     -43.806  19.454  17.954  1.00  0.00    +0.253 C 
ATOM      3  C   UNL     1     -44.313  21.152  20.046  1.00  0.00    +0.179 C 
ATOM      4  C   UNL     1     -44.541  19.654  20.352  1.00  0.00    +0.154 C 
ATOM      5  C   UNL     1     -43.880  18.752  19.309  1.00  0.00    +0.097 C 
ATOM      6  C   UNL     1     -42.995  21.317  19.274  1.00  0.00    +0.150 C 
ATOM      7  C   UNL     1     -42.677  22.783  18.989  1.00  0.00    +0.041 C 
ENDROOT
BRANCH   2   8
ATOM      8  O   UNL     1     -43.193  18.547  17.038  1.00  0.00    -0.344 OA
BRANCH   8   9
ATOM      9  C   UNL     1     -41.775  18.712  16.855  1.00  0.00    +0.153 C 
ATOM     10  O   UNL     1     -42.570  17.114   9.893  1.00  0.00    -0.346 OA
ATOM     11  C   UNL     1     -41.137  17.108   9.891  1.00  0.00    +0.172 C 
ATOM     12  C   UNL     1     -43.144  18.130   9.067  1.00  0.00    +0.127 C 
ATOM     13  O   UNL     1     -40.617  18.056  10.837  1.00  0.00    -0.346 OA
ATOM     14  C   UNL     1     -40.567  17.503   8.512  1.00  0.00    +0.066 C 
ATOM     15  C   UNL     1     -40.678  15.687  10.261  1.00  0.00    +0.111 C 
ATOM     16  C   UNL     1     -42.896  17.768   7.580  1.00  0.00    +0.015 C 
ATOM     17  C   UNL     1     -41.039  17.820  12.186  1.00  0.00    +0.129 C 
ATOM     18  C   UNL     1     -41.515  17.112   7.388  1.00  0.00    +0.011 C 
ATOM     19  C   UNL     1     -41.095  15.349  11.686  1.00  0.00    +0.184 C 
ATOM     20  C   UNL     1     -40.599  16.433  12.628  1.00  0.00    +0.078 C 
ATOM     21  C   UNL     1     -40.433  18.922  13.085  1.00  0.00    +0.059 C 
ATOM     22  O   UNL     1     -40.458  14.141  12.146  1.00  0.00    -0.462 OA
ATOM     23  C   UNL     1     -40.644  18.663  14.559  1.00  0.00    -0.023 C 
ATOM     24  C   UNL     1     -41.115  12.958  11.968  1.00  0.00    +0.316 C 
ATOM     25  C   UNL     1     -41.583  19.167  15.387  1.00  0.00    -0.048 C 
ATOM     26  O   UNL     1     -42.105  12.809  11.268  1.00  0.00    -0.251 OA
ATOM     27  C   UNL     1     -40.393  11.884  12.780  1.00  0.00    +0.161 C 
ATOM     28  C   UNL     1     -40.956  11.805  14.226  1.00  0.00    +0.134 C 
ATOM     29  C   UNL     1     -40.376  10.552  12.069  1.00  0.00    -0.007 C 
ATOM     30  C   UNL     1     -41.012  17.413  17.315  1.00  0.00    +0.042 C 
ATOM     31  C   UNL     1     -40.307  10.649  14.986  1.00  0.00    +0.188 C 
ATOM     32  C   UNL     1     -40.453  12.934  15.099  1.00  0.00    -0.009 C 
ATOM     33  C   UNL     1     -40.322   9.380  12.727  1.00  0.00    -0.045 C 
ATOM     34  C   UNL     1     -41.467  16.162  16.578  1.00  0.00    -0.021 C 
ATOM     35  O   UNL     1     -38.961  11.115  15.261  1.00  0.00    -0.367 OA
ATOM     36  C   UNL     1     -40.330   9.303  14.234  1.00  0.00    +0.172 C 
ATOM     37  C   UNL     1     -39.100  12.515  15.605  1.00  0.00    +0.195 C 
ATOM     38  C   UNL     1     -41.147  14.036  15.430  1.00  0.00    +0.004 C 
ATOM     39  C   UNL     1     -40.668  15.137  16.238  1.00  0.00    -0.004 C 
ATOM     40  C   UNL     1     -43.048  19.000   6.684  1.00  0.00    +0.010 C 
ATOM     41  C   UNL     1     -42.553  20.237  14.942  1.00  0.00    +0.042 C 
ATOM     42  C   UNL     1     -41.130  17.165  18.821  1.00  0.00    +0.015 C 
ATOM     43  C   UNL     1     -40.307   8.067  11.993  1.00  0.00    +0.042 C 
BRANCH  12  44
ATOM     44  C   UNL     1     -44.643  18.296   9.442  1.00  0.00    +0.015 C 
ATOM     45  C   UNL     1     -44.870  18.381  10.960  1.00  0.00    +0.010 C 
BRANCH  44  46
ATOM     46  C   UNL     1     -45.278  19.554   8.798  1.00  0.00    +0.002 C 
ATOM     47  C   UNL     1     -46.195  20.334   9.729  1.00  0.00    +0.004 C 
ENDBRANCH  44  46
ENDBRANCH  12  44
BRANCH  28  48
ATOM     48  O   UNL     1     -42.372  11.689  14.258  1.00  0.00    -0.381 OA
ATOM     49  H   UNL     1     -42.756  12.386  13.698  1.00  0.00    +0.212 HD
ENDBRANCH  28  48
BRANCH  36  50
ATOM     50  O   UNL     1     -39.223   8.507  14.663  1.00  0.00    -0.386 OA
ATOM     51  H   UNL     1     -38.663   9.112  15.188  1.00  0.00    +0.211 HD
ENDBRANCH  36  50
ENDBRANCH   8   9
ENDBRANCH   2   8
BRANCH   4  52
ATOM     52  O   UNL     1     -45.965  19.422  20.373  1.00  0.00    -0.378 OA
ATOM     53  C   UNL     1     -46.354  18.277  19.621  1.00  0.00    +0.195 C 
ENDBRANCH   4  52
BRANCH   3  54
ATOM     54  O   UNL     1     -44.235  21.877  21.283  1.00  0.00    -0.344 OA
BRANCH  54  55
ATOM     55  C   UNL     1     -43.563  21.148  22.315  1.00  0.00    +0.253 C 
ATOM     56  O   UNL     1     -44.036  21.615  23.576  1.00  0.00    -0.347 OA
ATOM     57  C   UNL     1     -42.067  21.370  22.099  1.00  0.00    +0.097 C 
ATOM     58  C   UNL     1     -43.125  21.511  24.670  1.00  0.00    +0.149 C 
ATOM     59  C   UNL     1     -41.580  22.558  22.913  1.00  0.00    +0.154 C 
ATOM     60  C   UNL     1     -41.831  22.313  24.414  1.00  0.00    +0.172 C 
ATOM     61  C   UNL     1     -42.867  20.049  25.030  1.00  0.00    +0.041 C 
BRANCH  59  62
ATOM     62  O   UNL     1     -40.162  22.717  22.721  1.00  0.00    -0.378 OA
ATOM     63  C   UNL     1     -39.838  23.249  21.443  1.00  0.00    +0.195 C 
ENDBRANCH  59  62
BRANCH  60  64
ATOM     64  O   UNL     1     -41.929  23.604  25.049  1.00  0.00    -0.388 OA
ATOM     65  H   UNL     1     -41.419  23.564  25.875  1.00  0.00    +0.211 HD
ENDBRANCH  60  64
ENDBRANCH  54  55
ENDBRANCH   3  54
TORSDOF 11
ENDMDL
MODEL 7
REMARK VINA RESULT:    -9.605      3.030     11.478
REMARK INTER + INTRA:         -15.822
REMARK INTER:                 -15.428
REMARK INTRA:                  -0.394
REMARK UNBOUND:                -0.882
REMARK SMILES CC[C@H](C)[C@H]1O[C@]2(CC[C@@H]1C)C[C@@H]1C[C@@H](C/C=C(\C)[C@@H](O[C@H]3C[C@H](OC)[C@@H](O[C@H]4C[C@H](OC)[C@@H](O)[C@H](C)O4)[C@H](C)O3)[C@@H](C)/C=C/C=C3\CO[C@@H]4[C@H](O)C(C)=C[C@@H](C(=O)O1)[C@]34O)O2
REMARK SMILES IDX 41 1 22 2 27 3 24 4 23 5 39 6 40 7 21 8 20 9 6 10 7 11 5 12
REMARK SMILES IDX 62 13 8 14 12 15 10 16 15 17 9 18 13 19 14 20 16 21 59 22
REMARK SMILES IDX 17 23 57 24 18 25 58 26 56 27 60 28 55 29 42 30 50 31 47 32
REMARK SMILES IDX 53 33 44 34 49 35 51 36 48 37 46 38 45 39 11 40 19 41 43 42
REMARK SMILES IDX 54 43 3 44 4 45 2 46 1 47 61 48 52 50 25 52 26 53 28 54
REMARK SMILES IDX 29 55 38 56 30 57 36 58 31 59 34 60 37 61 32 62 33 63 35 64
REMARK H PARENT 61 49 52 51 35 65
ROOT
ATOM      1  O   UNL     1     -38.759  10.521  14.233  1.00  0.00    -0.347 OA
ATOM      2  C   UNL     1     -39.376  11.458  13.353  1.00  0.00    +0.253 C 
ATOM      3  C   UNL     1     -37.922   9.455  12.174  1.00  0.00    +0.179 C 
ATOM      4  C   UNL     1     -37.930  10.796  11.404  1.00  0.00    +0.154 C 
ATOM      5  C   UNL     1     -38.409  11.954  12.280  1.00  0.00    +0.097 C 
ATOM      6  C   UNL     1     -37.706   9.732  13.669  1.00  0.00    +0.150 C 
ATOM      7  C   UNL     1     -37.628   8.444  14.486  1.00  0.00    +0.041 C 
ENDROOT
BRANCH   2   8
ATOM      8  O   UNL     1     -39.785  12.594  14.114  1.00  0.00    -0.344 OA
BRANCH   8   9
ATOM      9  C   UNL     1     -41.119  12.535  14.650  1.00  0.00    +0.153 C 
ATOM     10  O   UNL     1     -42.819  18.394  10.850  1.00  0.00    -0.346 OA
ATOM     11  C   UNL     1     -44.036  18.341  11.607  1.00  0.00    +0.172 C 
ATOM     12  C   UNL     1     -43.005  18.209   9.444  1.00  0.00    +0.127 C 
ATOM     13  O   UNL     1     -44.392  16.983  11.914  1.00  0.00    -0.346 OA
ATOM     14  C   UNL     1     -45.222  18.942  10.822  1.00  0.00    +0.066 C 
ATOM     15  C   UNL     1     -43.810  19.134  12.905  1.00  0.00    +0.111 C 
ATOM     16  C   UNL     1     -43.716  19.460   8.864  1.00  0.00    +0.015 C 
ATOM     17  C   UNL     1     -43.396  16.278  12.665  1.00  0.00    +0.129 C 
ATOM     18  C   UNL     1     -44.756  20.019   9.855  1.00  0.00    +0.011 C 
ATOM     19  C   UNL     1     -42.753  18.454  13.766  1.00  0.00    +0.184 C 
ATOM     20  C   UNL     1     -43.135  17.000  13.978  1.00  0.00    +0.078 C 
ATOM     21  C   UNL     1     -43.895  14.834  12.898  1.00  0.00    +0.059 C 
ATOM     22  O   UNL     1     -42.710  19.022  15.089  1.00  0.00    -0.462 OA
ATOM     23  C   UNL     1     -43.019  14.054  13.852  1.00  0.00    -0.023 C 
ATOM     24  C   UNL     1     -41.842  20.048  15.322  1.00  0.00    +0.316 C 
ATOM     25  C   UNL     1     -42.040  13.166  13.577  1.00  0.00    -0.048 C 
ATOM     26  O   UNL     1     -41.244  20.666  14.455  1.00  0.00    -0.251 OA
ATOM     27  C   UNL     1     -41.769  20.279  16.831  1.00  0.00    +0.161 C 
ATOM     28  C   UNL     1     -40.664  19.398  17.477  1.00  0.00    +0.134 C 
ATOM     29  C   UNL     1     -41.647  21.744  17.175  1.00  0.00    -0.007 C 
ATOM     30  C   UNL     1     -41.154  13.165  16.094  1.00  0.00    +0.042 C 
ATOM     31  C   UNL     1     -40.523  19.726  18.963  1.00  0.00    +0.188 C 
ATOM     32  C   UNL     1     -41.095  17.955  17.624  1.00  0.00    -0.009 C 
ATOM     33  C   UNL     1     -41.038  22.176  18.294  1.00  0.00    -0.045 C 
ATOM     34  C   UNL     1     -40.668  14.606  16.126  1.00  0.00    -0.021 C 
ATOM     35  O   UNL     1     -41.704  19.141  19.569  1.00  0.00    -0.367 OA
ATOM     36  C   UNL     1     -40.379  21.230  19.268  1.00  0.00    +0.172 C 
ATOM     37  C   UNL     1     -41.898  17.874  18.894  1.00  0.00    +0.195 C 
ATOM     38  C   UNL     1     -40.726  16.941  16.823  1.00  0.00    +0.004 C 
ATOM     39  C   UNL     1     -41.155  15.564  16.934  1.00  0.00    -0.004 C 
ATOM     40  C   UNL     1     -44.360  19.145   7.511  1.00  0.00    +0.010 C 
ATOM     41  C   UNL     1     -41.750  12.704  12.168  1.00  0.00    +0.042 C 
ATOM     42  C   UNL     1     -40.348  12.352  17.109  1.00  0.00    +0.015 C 
ATOM     43  C   UNL     1     -40.929  23.643  18.612  1.00  0.00    +0.042 C 
BRANCH  12  44
ATOM     44  C   UNL     1     -41.630  17.898   8.791  1.00  0.00    +0.015 C 
ATOM     45  C   UNL     1     -40.589  17.400   9.807  1.00  0.00    +0.010 C 
BRANCH  44  46
ATOM     46  C   UNL     1     -41.736  16.839   7.667  1.00  0.00    +0.002 C 
ATOM     47  C   UNL     1     -41.774  15.401   8.166  1.00  0.00    +0.004 C 
ENDBRANCH  44  46
ENDBRANCH  12  44
BRANCH  28  48
ATOM     48  O   UNL     1     -39.409  19.521  16.819  1.00  0.00    -0.381 OA
ATOM     49  H   UNL     1     -38.763  19.891  17.446  1.00  0.00    +0.212 HD
ENDBRANCH  28  48
BRANCH  36  50
ATOM     50  O   UNL     1     -40.883  21.492  20.580  1.00  0.00    -0.386 OA
ATOM     51  H   UNL     1     -41.300  20.656  20.865  1.00  0.00    +0.211 HD
ENDBRANCH  36  50
ENDBRANCH   8   9
ENDBRANCH   2   8
BRANCH   4  52
ATOM     52  O   UNL     1     -38.805  10.643  10.267  1.00  0.00    -0.378 OA
ATOM     53  C   UNL     1     -39.096  11.877   9.617  1.00  0.00    +0.195 C 
ENDBRANCH   4  52
BRANCH   3  54
ATOM     54  O   UNL     1     -36.849   8.638  11.680  1.00  0.00    -0.344 OA
BRANCH  54  55
ATOM     55  C   UNL     1     -37.288   7.645  10.748  1.00  0.00    +0.253 C 
ATOM     56  O   UNL     1     -38.572   8.027  10.258  1.00  0.00    -0.347 OA
ATOM     57  C   UNL     1     -37.287   6.314  11.497  1.00  0.00    +0.097 C 
ATOM     58  C   UNL     1     -39.430   6.964   9.844  1.00  0.00    +0.149 C 
ATOM     59  C   UNL     1     -38.653   6.043  12.107  1.00  0.00    +0.154 C 
ATOM     60  C   UNL     1     -39.726   5.985  11.002  1.00  0.00    +0.172 C 
ATOM     61  C   UNL     1     -38.885   6.273   8.596  1.00  0.00    +0.041 C 
BRANCH  59  62
ATOM     62  O   UNL     1     -38.632   4.765  12.771  1.00  0.00    -0.378 OA
ATOM     63  C   UNL     1     -38.419   4.878  14.172  1.00  0.00    +0.195 C 
ENDBRANCH  59  62
BRANCH  60  64
ATOM     64  O   UNL     1     -40.988   6.325  11.611  1.00  0.00    -0.388 OA
ATOM     65  H   UNL     1     -41.014   7.290  11.714  1.00  0.00    +0.211 HD
ENDBRANCH  60  64
ENDBRANCH  54  55
ENDBRANCH   3  54
TORSDOF 11
ENDMDL
