MODEL 1
REMARK VINA RESULT:    -8.578      0.000      0.000
REMARK INTER + INTRA:         -15.449
REMARK INTER:                 -13.342
REMARK INTRA:                  -2.106
REMARK UNBOUND:                -2.106
REMARK SMILES CC[C@H](C)[C@H]1O[C@]2(CC[C@@H]1C)C[C@@H]1C[C@@H](C/C=C(\C)[C@@H](O[C@H]3C[C@H](OC)[C@@H](O[C@H]4C[C@H](OC)[C@@H](O)[C@H](C)O4)[C@H](C)O3)[C@@H](C)/C=C/C=C3\CO[C@@H]4[C@H](O)C(C)=C[C@@H](C(=O)O1)[C@]34O)O2
REMARK SMILES IDX 41 1 22 2 27 3 24 4 23 5 39 6 40 7 21 8 20 9 6 10 7 11 5 12
REMARK SMILES IDX 62 13 8 14 12 15 10 16 15 17 9 18 13 19 14 20 16 21 59 22
REMARK SMILES IDX 17 23 57 24 18 25 58 26 56 27 60 28 55 29 42 30 50 31 47 32
REMARK SMILES IDX 53 33 44 34 49 35 51 36 48 37 46 38 45 39 11 40 19 41 43 42
REMARK SMILES IDX 54 43 3 44 4 45 2 46 1 47 61 48 52 50 25 52 26 53 28 54
REMARK SMILES IDX 29 55 38 56 30 57 36 58 31 59 34 60 37 61 32 62 33 63 35 64
REMARK H PARENT 61 49 52 51 35 65
ROOT
ATOM      1  O   UNL     1      11.370  74.350  23.141  1.00  0.00    -0.347 OA
ATOM      2  C   UNL     1      11.313  72.945  22.902  1.00  0.00    +0.253 C 
ATOM      3  C   UNL     1       9.098  74.075  24.058  1.00  0.00    +0.179 C 
ATOM      4  C   UNL     1       9.377  72.613  24.475  1.00  0.00    +0.154 C 
ATOM      5  C   UNL     1      10.801  72.181  24.122  1.00  0.00    +0.097 C 
ATOM      6  C   UNL     1      10.415  74.866  24.074  1.00  0.00    +0.150 C 
ATOM      7  C   UNL     1      10.204  76.338  23.728  1.00  0.00    +0.041 C 
ENDROOT
BRANCH   2   8
ATOM      8  O   UNL     1      12.634  72.478  22.631  1.00  0.00    -0.344 OA
BRANCH   8   9
ATOM      9  C   UNL     1      13.636  73.499  22.481  1.00  0.00    +0.153 C 
ATOM     10  O   UNL     1      16.879  69.476  17.486  1.00  0.00    -0.346 OA
ATOM     11  C   UNL     1      17.911  70.466  17.583  1.00  0.00    +0.172 C 
ATOM     12  C   UNL     1      16.249  69.423  16.204  1.00  0.00    +0.127 C 
ATOM     13  O   UNL     1      17.360  71.757  17.890  1.00  0.00    -0.346 OA
ATOM     14  C   UNL     1      18.681  70.620  16.253  1.00  0.00    +0.066 C 
ATOM     15  C   UNL     1      18.875  70.025  18.698  1.00  0.00    +0.111 C 
ATOM     16  C   UNL     1      17.253  68.840  15.175  1.00  0.00    +0.015 C 
ATOM     17  C   UNL     1      16.621  71.795  19.118  1.00  0.00    +0.129 C 
ATOM     18  C   UNL     1      18.689  69.319  15.465  1.00  0.00    +0.011 C 
ATOM     19  C   UNL     1      18.165  70.029  20.045  1.00  0.00    +0.184 C 
ATOM     20  C   UNL     1      17.523  71.386  20.273  1.00  0.00    +0.078 C 
ATOM     21  C   UNL     1      16.066  73.224  19.307  1.00  0.00    +0.059 C 
ATOM     22  O   UNL     1      19.100  69.876  21.131  1.00  0.00    -0.462 OA
ATOM     23  C   UNL     1      15.439  73.439  20.666  1.00  0.00    -0.023 C 
ATOM     24  C   UNL     1      19.360  68.616  21.584  1.00  0.00    +0.316 C 
ATOM     25  C   UNL     1      14.138  73.397  21.020  1.00  0.00    -0.048 C 
ATOM     26  O   UNL     1      19.028  67.588  21.015  1.00  0.00    -0.251 OA
ATOM     27  C   UNL     1      20.135  68.731  22.896  1.00  0.00    +0.161 C 
ATOM     28  C   UNL     1      19.167  68.804  24.110  1.00  0.00    +0.134 C 
ATOM     29  C   UNL     1      21.186  67.655  23.030  1.00  0.00    -0.007 C 
ATOM     30  C   UNL     1      14.712  73.377  23.625  1.00  0.00    +0.042 C 
ATOM     31  C   UNL     1      19.956  68.798  25.419  1.00  0.00    +0.188 C 
ATOM     32  C   UNL     1      18.534  70.170  24.256  1.00  0.00    -0.009 C 
ATOM     33  C   UNL     1      21.599  67.191  24.223  1.00  0.00    -0.045 C 
ATOM     34  C   UNL     1      15.391  72.016  23.662  1.00  0.00    -0.021 C 
ATOM     35  O   UNL     1      20.547  70.122  25.483  1.00  0.00    -0.367 OA
ATOM     36  C   UNL     1      21.003  67.672  25.524  1.00  0.00    +0.172 C 
ATOM     37  C   UNL     1      19.524  71.025  24.998  1.00  0.00    +0.195 C 
ATOM     38  C   UNL     1      17.284  70.498  23.886  1.00  0.00    +0.004 C 
ATOM     39  C   UNL     1      16.677  71.807  23.992  1.00  0.00    -0.004 C 
ATOM     40  C   UNL     1      16.836  69.189  13.744  1.00  0.00    +0.010 C 
ATOM     41  C   UNL     1      13.034  73.238  20.000  1.00  0.00    +0.042 C 
ATOM     42  C   UNL     1      14.133  73.674  25.011  1.00  0.00    +0.015 C 
ATOM     43  C   UNL     1      22.648  66.118  24.328  1.00  0.00    +0.042 C 
BRANCH  12  44
ATOM     44  C   UNL     1      14.925  68.620  16.326  1.00  0.00    +0.015 C 
ATOM     45  C   UNL     1      14.557  68.301  17.784  1.00  0.00    +0.010 C 
BRANCH  44  46
ATOM     46  C   UNL     1      13.724  69.360  15.687  1.00  0.00    +0.002 C 
ATOM     47  C   UNL     1      13.813  70.877  15.765  1.00  0.00    +0.004 C 
ENDBRANCH  44  46
ENDBRANCH  12  44
BRANCH  28  48
ATOM     48  O   UNL     1      18.202  67.760  24.106  1.00  0.00    -0.381 OA
ATOM     49  H   UNL     1      17.506  67.980  23.463  1.00  0.00    +0.212 HD
ENDBRANCH  28  48
BRANCH  36  50
ATOM     50  O   UNL     1      22.059  68.093  26.390  1.00  0.00    -0.386 OA
ATOM     51  H   UNL     1      22.880  67.776  25.964  1.00  0.00    +0.211 HD
ENDBRANCH  36  50
ENDBRANCH   8   9
ENDBRANCH   2   8
BRANCH   4  52
ATOM     52  O   UNL     1       8.424  71.773  23.791  1.00  0.00    -0.378 OA
ATOM     53  C   UNL     1       7.494  71.151  24.673  1.00  0.00    +0.195 C 
ENDBRANCH   4  52
BRANCH   3  54
ATOM     54  O   UNL     1       8.178  74.661  24.991  1.00  0.00    -0.344 OA
BRANCH  54  55
ATOM     55  C   UNL     1       6.856  74.796  24.461  1.00  0.00    +0.253 C 
ATOM     56  O   UNL     1       6.922  74.639  23.045  1.00  0.00    -0.347 OA
ATOM     57  C   UNL     1       6.346  76.165  24.906  1.00  0.00    +0.097 C 
ATOM     58  C   UNL     1       5.920  75.318  22.289  1.00  0.00    +0.149 C 
ATOM     59  C   UNL     1       6.649  77.216  23.850  1.00  0.00    +0.154 C 
ATOM     60  C   UNL     1       5.966  76.844  22.519  1.00  0.00    +0.172 C 
ATOM     61  C   UNL     1       4.540  74.712  22.539  1.00  0.00    +0.041 C 
BRANCH  59  62
ATOM     62  O   UNL     1       6.121  78.486  24.279  1.00  0.00    -0.378 OA
ATOM     63  C   UNL     1       4.724  78.607  24.042  1.00  0.00    +0.195 C 
ENDBRANCH  59  62
BRANCH  60  64
ATOM     64  O   UNL     1       6.719  77.470  21.460  1.00  0.00    -0.388 OA
ATOM     65  H   UNL     1       7.214  78.209  21.850  1.00  0.00    +0.211 HD
ENDBRANCH  60  64
ENDBRANCH  54  55
ENDBRANCH   3  54
TORSDOF 11
ENDMDL
MODEL 2
REMARK VINA RESULT:    -8.527      3.996     13.583
REMARK INTER + INTRA:         -15.368
REMARK INTER:                 -13.385
REMARK INTRA:                  -1.984
REMARK UNBOUND:                -2.106
REMARK SMILES CC[C@H](C)[C@H]1O[C@]2(CC[C@@H]1C)C[C@@H]1C[C@@H](C/C=C(\C)[C@@H](O[C@H]3C[C@H](OC)[C@@H](O[C@H]4C[C@H](OC)[C@@H](O)[C@H](C)O4)[C@H](C)O3)[C@@H](C)/C=C/C=C3\CO[C@@H]4[C@H](O)C(C)=C[C@@H](C(=O)O1)[C@]34O)O2
REMARK SMILES IDX 41 1 22 2 27 3 24 4 23 5 39 6 40 7 21 8 20 9 6 10 7 11 5 12
REMARK SMILES IDX 62 13 8 14 12 15 10 16 15 17 9 18 13 19 14 20 16 21 59 22
REMARK SMILES IDX 17 23 57 24 18 25 58 26 56 27 60 28 55 29 42 30 50 31 47 32
REMARK SMILES IDX 53 33 44 34 49 35 51 36 48 37 46 38 45 39 11 40 19 41 43 42
REMARK SMILES IDX 54 43 3 44 4 45 2 46 1 47 61 48 52 50 25 52 26 53 28 54
REMARK SMILES IDX 29 55 38 56 30 57 36 58 31 59 34 60 37 61 32 62 33 63 35 64
REMARK H PARENT 61 49 52 51 35 65
ROOT
ATOM      1  O   UNL     1      19.948  66.780  20.161  1.00  0.00    -0.347 OA
ATOM      2  C   UNL     1      19.685  67.726  19.127  1.00  0.00    +0.253 C 
ATOM      3  C   UNL     1      21.989  66.260  18.882  1.00  0.00    +0.179 C 
ATOM      4  C   UNL     1      22.060  67.689  18.296  1.00  0.00    +0.154 C 
ATOM      5  C   UNL     1      20.916  68.570  18.801  1.00  0.00    +0.097 C 
ATOM      6  C   UNL     1      21.296  66.308  20.252  1.00  0.00    +0.150 C 
ATOM      7  C   UNL     1      21.244  64.935  20.917  1.00  0.00    +0.041 C 
ENDROOT
BRANCH   2   8
ATOM      8  O   UNL     1      18.665  68.617  19.576  1.00  0.00    -0.344 OA
BRANCH   8   9
ATOM      9  C   UNL     1      18.723  69.950  19.039  1.00  0.00    +0.153 C 
ATOM     10  O   UNL     1      14.870  72.291  24.636  1.00  0.00    -0.346 OA
ATOM     11  C   UNL     1      14.829  73.518  23.894  1.00  0.00    +0.172 C 
ATOM     12  C   UNL     1      15.558  72.394  25.884  1.00  0.00    +0.127 C 
ATOM     13  O   UNL     1      16.030  73.695  23.125  1.00  0.00    -0.346 OA
ATOM     14  C   UNL     1      14.717  74.743  24.827  1.00  0.00    +0.066 C 
ATOM     15  C   UNL     1      13.608  73.456  22.960  1.00  0.00    +0.111 C 
ATOM     16  C   UNL     1      14.705  73.247  26.858  1.00  0.00    +0.015 C 
ATOM     17  C   UNL     1      16.278  72.641  22.186  1.00  0.00    +0.129 C 
ATOM     18  C   UNL     1      13.990  74.393  26.116  1.00  0.00    +0.011 C 
ATOM     19  C   UNL     1      13.785  72.351  21.928  1.00  0.00    +0.184 C 
ATOM     20  C   UNL     1      15.113  72.536  21.213  1.00  0.00    +0.078 C 
ATOM     21  C   UNL     1      17.605  72.945  21.455  1.00  0.00    +0.059 C 
ATOM     22  O   UNL     1      12.792  72.439  20.889  1.00  0.00    -0.462 OA
ATOM     23  C   UNL     1      17.868  72.008  20.298  1.00  0.00    -0.023 C 
ATOM     24  C   UNL     1      11.635  71.731  21.041  1.00  0.00    +0.316 C 
ATOM     25  C   UNL     1      18.646  70.906  20.254  1.00  0.00    -0.048 C 
ATOM     26  O   UNL     1      11.280  71.191  22.077  1.00  0.00    -0.251 OA
ATOM     27  C   UNL     1      10.884  71.751  19.710  1.00  0.00    +0.161 C 
ATOM     28  C   UNL     1      11.316  70.562  18.809  1.00  0.00    +0.134 C 
ATOM     29  C   UNL     1       9.390  71.846  19.904  1.00  0.00    -0.007 C 
ATOM     30  C   UNL     1      17.641  70.130  17.908  1.00  0.00    +0.042 C 
ATOM     31  C   UNL     1      10.473  70.527  17.535  1.00  0.00    +0.188 C 
ATOM     32  C   UNL     1      12.662  70.795  18.159  1.00  0.00    -0.009 C 
ATOM     33  C   UNL     1       8.511  71.348  19.016  1.00  0.00    -0.045 C 
ATOM     34  C   UNL     1      16.225  69.849  18.389  1.00  0.00    -0.021 C 
ATOM     35  O   UNL     1      10.972  71.639  16.748  1.00  0.00    -0.367 OA
ATOM     36  C   UNL     1       8.953  70.605  17.779  1.00  0.00    +0.172 C 
ATOM     37  C   UNL     1      12.409  71.628  16.933  1.00  0.00    +0.195 C 
ATOM     38  C   UNL     1      13.828  70.257  18.557  1.00  0.00    +0.004 C 
ATOM     39  C   UNL     1      15.126  70.495  17.964  1.00  0.00    -0.004 C 
ATOM     40  C   UNL     1      15.561  73.787  28.007  1.00  0.00    +0.010 C 
ATOM     41  C   UNL     1      19.524  70.498  21.415  1.00  0.00    +0.042 C 
ATOM     42  C   UNL     1      17.923  69.259  16.681  1.00  0.00    +0.015 C 
ATOM     43  C   UNL     1       7.027  71.456  19.234  1.00  0.00    +0.042 C 
BRANCH  12  44
ATOM     44  C   UNL     1      15.877  70.964  26.402  1.00  0.00    +0.015 C 
ATOM     45  C   UNL     1      14.612  70.163  26.753  1.00  0.00    +0.010 C 
BRANCH  44  46
ATOM     46  C   UNL     1      16.692  70.134  25.381  1.00  0.00    +0.002 C 
ATOM     47  C   UNL     1      17.993  70.790  24.941  1.00  0.00    +0.004 C 
ENDBRANCH  44  46
ENDBRANCH  12  44
BRANCH  28  48
ATOM     48  O   UNL     1      11.252  69.311  19.482  1.00  0.00    -0.381 OA
ATOM     49  H   UNL     1      11.836  68.680  19.025  1.00  0.00    +0.212 HD
ENDBRANCH  28  48
BRANCH  36  50
ATOM     50  O   UNL     1       8.324  71.191  16.637  1.00  0.00    -0.386 OA
ATOM     51  H   UNL     1       9.058  71.528  16.087  1.00  0.00    +0.211 HD
ENDBRANCH  36  50
ENDBRANCH   8   9
ENDBRANCH   2   8
BRANCH   4  52
ATOM     52  O   UNL     1      21.997  67.578  16.859  1.00  0.00    -0.378 OA
ATOM     53  C   UNL     1      21.363  68.693  16.240  1.00  0.00    +0.195 C 
ENDBRANCH   4  52
BRANCH   3  54
ATOM     54  O   UNL     1      23.323  65.753  19.040  1.00  0.00    -0.344 OA
BRANCH  54  55
ATOM     55  C   UNL     1      23.631  64.699  18.122  1.00  0.00    +0.253 C 
ATOM     56  O   UNL     1      22.418  64.272  17.506  1.00  0.00    -0.347 OA
ATOM     57  C   UNL     1      24.327  63.606  18.932  1.00  0.00    +0.097 C 
ATOM     58  C   UNL     1      22.375  62.913  17.072  1.00  0.00    +0.149 C 
ATOM     59  C   UNL     1      23.315  62.588  19.435  1.00  0.00    +0.154 C 
ATOM     60  C   UNL     1      22.587  61.932  18.246  1.00  0.00    +0.172 C 
ATOM     61  C   UNL     1      23.338  62.678  15.910  1.00  0.00    +0.041 C 
BRANCH  59  62
ATOM     62  O   UNL     1      24.005  61.551  20.159  1.00  0.00    -0.378 OA
ATOM     63  C   UNL     1      24.908  60.819  19.340  1.00  0.00    +0.195 C 
ENDBRANCH  59  62
BRANCH  60  64
ATOM     64  O   UNL     1      21.307  61.472  18.728  1.00  0.00    -0.388 OA
ATOM     65  H   UNL     1      21.079  60.668  18.232  1.00  0.00    +0.211 HD
ENDBRANCH  60  64
ENDBRANCH  54  55
ENDBRANCH   3  54
TORSDOF 11
ENDMDL
MODEL 3
REMARK VINA RESULT:    -8.486      4.623     14.084
REMARK INTER + INTRA:         -15.305
REMARK INTER:                 -13.470
REMARK INTRA:                  -1.836
REMARK UNBOUND:                -2.106
REMARK SMILES CC[C@H](C)[C@H]1O[C@]2(CC[C@@H]1C)C[C@@H]1C[C@@H](C/C=C(\C)[C@@H](O[C@H]3C[C@H](OC)[C@@H](O[C@H]4C[C@H](OC)[C@@H](O)[C@H](C)O4)[C@H](C)O3)[C@@H](C)/C=C/C=C3\CO[C@@H]4[C@H](O)C(C)=C[C@@H](C(=O)O1)[C@]34O)O2
REMARK SMILES IDX 41 1 22 2 27 3 24 4 23 5 39 6 40 7 21 8 20 9 6 10 7 11 5 12
REMARK SMILES IDX 62 13 8 14 12 15 10 16 15 17 9 18 13 19 14 20 16 21 59 22
REMARK SMILES IDX 17 23 57 24 18 25 58 26 56 27 60 28 55 29 42 30 50 31 47 32
REMARK SMILES IDX 53 33 44 34 49 35 51 36 48 37 46 38 45 39 11 40 19 41 43 42
REMARK SMILES IDX 54 43 3 44 4 45 2 46 1 47 61 48 52 50 25 52 26 53 28 54
REMARK SMILES IDX 29 55 38 56 30 57 36 58 31 59 34 60 37 61 32 62 33 63 35 64
REMARK H PARENT 61 49 52 51 35 65
ROOT
ATOM      1  O   UNL     1      20.848  66.128  18.511  1.00  0.00    -0.347 OA
ATOM      2  C   UNL     1      21.289  67.351  19.098  1.00  0.00    +0.253 C 
ATOM      3  C   UNL     1      23.120  65.312  19.007  1.00  0.00    +0.179 C 
ATOM      4  C   UNL     1      23.265  66.266  20.215  1.00  0.00    +0.154 C 
ATOM      5  C   UNL     1      22.013  67.117  20.423  1.00  0.00    +0.097 C 
ATOM      6  C   UNL     1      21.636  64.971  18.807  1.00  0.00    +0.150 C 
ATOM      7  C   UNL     1      21.424  63.982  17.663  1.00  0.00    +0.041 C 
ENDROOT
BRANCH   2   8
ATOM      8  O   UNL     1      20.146  68.159  19.374  1.00  0.00    -0.344 OA
BRANCH   8   9
ATOM      9  C   UNL     1      20.223  69.521  18.916  1.00  0.00    +0.153 C 
ATOM     10  O   UNL     1      15.266  71.357  23.786  1.00  0.00    -0.346 OA
ATOM     11  C   UNL     1      15.290  72.618  23.105  1.00  0.00    +0.172 C 
ATOM     12  C   UNL     1      15.703  71.426  25.145  1.00  0.00    +0.127 C 
ATOM     13  O   UNL     1      16.599  72.897  22.584  1.00  0.00    -0.346 OA
ATOM     14  C   UNL     1      14.933  73.784  24.052  1.00  0.00    +0.066 C 
ATOM     15  C   UNL     1      14.270  72.545  21.955  1.00  0.00    +0.111 C 
ATOM     16  C   UNL     1      14.635  72.181  25.977  1.00  0.00    +0.015 C 
ATOM     17  C   UNL     1      17.080  71.910  21.662  1.00  0.00    +0.129 C 
ATOM     18  C   UNL     1      14.002  73.328  25.165  1.00  0.00    +0.011 C 
ATOM     19  C   UNL     1      14.701  71.508  20.927  1.00  0.00    +0.184 C 
ATOM     20  C   UNL     1      16.124  71.799  20.484  1.00  0.00    +0.078 C 
ATOM     21  C   UNL     1      18.499  72.320  21.208  1.00  0.00    +0.059 C 
ATOM     22  O   UNL     1      13.913  71.603  19.725  1.00  0.00    -0.462 OA
ATOM     23  C   UNL     1      19.028  71.462  20.081  1.00  0.00    -0.023 C 
ATOM     24  C   UNL     1      12.793  70.830  19.626  1.00  0.00    +0.316 C 
ATOM     25  C   UNL     1      19.865  70.404  20.136  1.00  0.00    -0.048 C 
ATOM     26  O   UNL     1      12.286  70.216  20.551  1.00  0.00    -0.251 OA
ATOM     27  C   UNL     1      12.302  70.884  18.180  1.00  0.00    +0.161 C 
ATOM     28  C   UNL     1      12.964  69.768  17.324  1.00  0.00    +0.134 C 
ATOM     29  C   UNL     1      10.795  70.893  18.093  1.00  0.00    -0.007 C 
ATOM     30  C   UNL     1      19.360  69.707  17.611  1.00  0.00    +0.042 C 
ATOM     31  C   UNL     1      12.375  69.760  15.914  1.00  0.00    +0.188 C 
ATOM     32  C   UNL     1      14.391  70.104  16.950  1.00  0.00    -0.009 C 
ATOM     33  C   UNL     1      10.128  70.400  17.034  1.00  0.00    -0.045 C 
ATOM     34  C   UNL     1      17.899  69.329  17.805  1.00  0.00    -0.021 C 
ATOM     35  O   UNL     1      12.944  70.937  15.285  1.00  0.00    -0.367 OA
ATOM     36  C   UNL     1      10.834  69.748  15.871  1.00  0.00    +0.172 C 
ATOM     37  C   UNL     1      14.320  70.989  15.736  1.00  0.00    +0.195 C 
ATOM     38  C   UNL     1      15.493  69.606  17.537  1.00  0.00    +0.004 C 
ATOM     39  C   UNL     1      16.861  69.941  17.209  1.00  0.00    -0.004 C 
ATOM     40  C   UNL     1      15.230  72.700  27.289  1.00  0.00    +0.010 C 
ATOM     41  C   UNL     1      20.536  69.980  21.422  1.00  0.00    +0.042 C 
ATOM     42  C   UNL     1      19.917  68.920  16.422  1.00  0.00    +0.015 C 
ATOM     43  C   UNL     1       8.625  70.420  16.974  1.00  0.00    +0.042 C 
BRANCH  12  44
ATOM     44  C   UNL     1      16.006  69.988  25.650  1.00  0.00    +0.015 C 
ATOM     45  C   UNL     1      14.735  69.141  25.827  1.00  0.00    +0.010 C 
BRANCH  44  46
ATOM     46  C   UNL     1      16.958  69.217  24.703  1.00  0.00    +0.002 C 
ATOM     47  C   UNL     1      18.324  69.866  24.529  1.00  0.00    +0.004 C 
ENDBRANCH  44  46
ENDBRANCH  12  44
BRANCH  28  48
ATOM     48  O   UNL     1      12.851  68.481  17.917  1.00  0.00    -0.381 OA
ATOM     49  H   UNL     1      13.200  68.524  18.825  1.00  0.00    +0.212 HD
ENDBRANCH  28  48
BRANCH  36  50
ATOM     50  O   UNL     1      10.394  70.363  14.658  1.00  0.00    -0.386 OA
ATOM     51  H   UNL     1       9.527  70.757  14.873  1.00  0.00    +0.211 HD
ENDBRANCH  36  50
ENDBRANCH   8   9
ENDBRANCH   2   8
BRANCH   4  52
ATOM     52  O   UNL     1      24.404  67.117  19.967  1.00  0.00    -0.378 OA
ATOM     53  C   UNL     1      24.661  68.029  21.030  1.00  0.00    +0.195 C 
ENDBRANCH   4  52
BRANCH   3  54
ATOM     54  O   UNL     1      23.856  64.107  19.270  1.00  0.00    -0.344 OA
BRANCH  54  55
ATOM     55  C   UNL     1      24.930  63.897  18.348  1.00  0.00    +0.253 C 
ATOM     56  O   UNL     1      24.711  64.725  17.208  1.00  0.00    -0.347 OA
ATOM     57  C   UNL     1      24.945  62.403  18.031  1.00  0.00    +0.097 C 
ATOM     58  C   UNL     1      25.253  64.254  15.974  1.00  0.00    +0.149 C 
ATOM     59  C   UNL     1      24.108  62.112  16.795  1.00  0.00    +0.154 C 
ATOM     60  C   UNL     1      24.668  62.879  15.581  1.00  0.00    +0.172 C 
ATOM     61  C   UNL     1      26.780  64.273  16.002  1.00  0.00    +0.041 C 
BRANCH  59  62
ATOM     62  O   UNL     1      24.174  60.704  16.497  1.00  0.00    -0.378 OA
ATOM     63  C   UNL     1      25.459  60.300  16.041  1.00  0.00    +0.195 C 
ENDBRANCH  59  62
BRANCH  60  64
ATOM     64  O   UNL     1      23.580  63.065  14.652  1.00  0.00    -0.388 OA
ATOM     65  H   UNL     1      22.842  62.509  14.950  1.00  0.00    +0.211 HD
ENDBRANCH  60  64
ENDBRANCH  54  55
ENDBRANCH   3  54
TORSDOF 11
ENDMDL
MODEL 4
REMARK VINA RESULT:    -8.191      4.425     13.907
REMARK INTER + INTRA:         -14.846
REMARK INTER:                 -12.736
REMARK INTRA:                  -2.110
REMARK UNBOUND:                -2.106
REMARK SMILES CC[C@H](C)[C@H]1O[C@]2(CC[C@@H]1C)C[C@@H]1C[C@@H](C/C=C(\C)[C@@H](O[C@H]3C[C@H](OC)[C@@H](O[C@H]4C[C@H](OC)[C@@H](O)[C@H](C)O4)[C@H](C)O3)[C@@H](C)/C=C/C=C3\CO[C@@H]4[C@H](O)C(C)=C[C@@H](C(=O)O1)[C@]34O)O2
REMARK SMILES IDX 41 1 22 2 27 3 24 4 23 5 39 6 40 7 21 8 20 9 6 10 7 11 5 12
REMARK SMILES IDX 62 13 8 14 12 15 10 16 15 17 9 18 13 19 14 20 16 21 59 22
REMARK SMILES IDX 17 23 57 24 18 25 58 26 56 27 60 28 55 29 42 30 50 31 47 32
REMARK SMILES IDX 53 33 44 34 49 35 51 36 48 37 46 38 45 39 11 40 19 41 43 42
REMARK SMILES IDX 54 43 3 44 4 45 2 46 1 47 61 48 52 50 25 52 26 53 28 54
REMARK SMILES IDX 29 55 38 56 30 57 36 58 31 59 34 60 37 61 32 62 33 63 35 64
REMARK H PARENT 61 49 52 51 35 65
ROOT
ATOM      1  O   UNL     1      22.016  67.500  20.304  1.00  0.00    -0.347 OA
ATOM      2  C   UNL     1      20.834  66.786  20.661  1.00  0.00    +0.253 C 
ATOM      3  C   UNL     1      23.048  65.272  20.091  1.00  0.00    +0.179 C 
ATOM      4  C   UNL     1      21.697  64.613  19.731  1.00  0.00    +0.154 C 
ATOM      5  C   UNL     1      20.556  65.631  19.701  1.00  0.00    +0.097 C 
ATOM      6  C   UNL     1      23.031  66.741  19.640  1.00  0.00    +0.150 C 
ATOM      7  C   UNL     1      24.361  67.440  19.912  1.00  0.00    +0.041 C 
ENDROOT
BRANCH   2   8
ATOM      8  O   UNL     1      19.724  67.679  20.585  1.00  0.00    -0.344 OA
BRANCH   8   9
ATOM      9  C   UNL     1      20.010  68.981  20.043  1.00  0.00    +0.153 C 
ATOM     10  O   UNL     1      14.770  71.743  24.113  1.00  0.00    -0.346 OA
ATOM     11  C   UNL     1      15.017  72.931  23.351  1.00  0.00    +0.172 C 
ATOM     12  C   UNL     1      15.053  71.882  25.508  1.00  0.00    +0.127 C 
ATOM     13  O   UNL     1      16.401  73.024  22.977  1.00  0.00    -0.346 OA
ATOM     14  C   UNL     1      14.691  74.205  24.159  1.00  0.00    +0.066 C 
ATOM     15  C   UNL     1      14.134  72.867  22.092  1.00  0.00    +0.111 C 
ATOM     16  C   UNL     1      13.990  72.814  26.144  1.00  0.00    +0.015 C 
ATOM     17  C   UNL     1      16.868  71.916  22.197  1.00  0.00    +0.129 C 
ATOM     18  C   UNL     1      13.591  73.947  25.179  1.00  0.00    +0.011 C 
ATOM     19  C   UNL     1      14.559  71.706  21.204  1.00  0.00    +0.184 C 
ATOM     20  C   UNL     1      16.048  71.805  20.920  1.00  0.00    +0.078 C 
ATOM     21  C   UNL     1      18.367  72.133  21.893  1.00  0.00    +0.059 C 
ATOM     22  O   UNL     1      13.931  71.779  19.910  1.00  0.00    -0.462 OA
ATOM     23  C   UNL     1      18.920  71.130  20.906  1.00  0.00    -0.023 C 
ATOM     24  C   UNL     1      12.748  71.123  19.729  1.00  0.00    +0.316 C 
ATOM     25  C   UNL     1      19.618  69.999  21.141  1.00  0.00    -0.048 C 
ATOM     26  O   UNL     1      12.070  70.649  20.627  1.00  0.00    -0.251 OA
ATOM     27  C   UNL     1      12.436  71.103  18.233  1.00  0.00    +0.161 C 
ATOM     28  C   UNL     1      13.059  69.855  17.550  1.00  0.00    +0.134 C 
ATOM     29  C   UNL     1      10.960  71.264  17.960  1.00  0.00    -0.007 C 
ATOM     30  C   UNL     1      19.330  69.144  18.631  1.00  0.00    +0.042 C 
ATOM     31  C   UNL     1      12.639  69.787  16.082  1.00  0.00    +0.188 C 
ATOM     32  C   UNL     1      14.549  70.005  17.332  1.00  0.00    -0.009 C 
ATOM     33  C   UNL     1      10.367  70.755  16.865  1.00  0.00    -0.045 C 
ATOM     34  C   UNL     1      17.823  68.940  18.669  1.00  0.00    -0.021 C 
ATOM     35  O   UNL     1      13.409  70.839  15.444  1.00  0.00    -0.367 OA
ATOM     36  C   UNL     1      11.123  69.934  15.849  1.00  0.00    +0.172 C 
ATOM     37  C   UNL     1      14.720  70.785  16.057  1.00  0.00    +0.195 C 
ATOM     38  C   UNL     1      15.511  69.445  18.085  1.00  0.00    +0.004 C 
ATOM     39  C   UNL     1      16.938  69.605  17.906  1.00  0.00    -0.004 C 
ATOM     40  C   UNL     1      14.486  73.379  27.479  1.00  0.00    +0.010 C 
ATOM     41  C   UNL     1      20.083  69.618  22.528  1.00  0.00    +0.042 C 
ATOM     42  C   UNL     1      19.925  68.203  17.580  1.00  0.00    +0.015 C 
ATOM     43  C   UNL     1       8.893  70.929  16.618  1.00  0.00    +0.042 C 
BRANCH  12  44
ATOM     44  C   UNL     1      15.128  70.469  26.150  1.00  0.00    +0.015 C 
ATOM     45  C   UNL     1      13.751  69.794  26.262  1.00  0.00    +0.010 C 
BRANCH  44  46
ATOM     46  C   UNL     1      16.060  69.512  25.367  1.00  0.00    +0.002 C 
ATOM     47  C   UNL     1      17.514  69.960  25.318  1.00  0.00    +0.004 C 
ENDBRANCH  44  46
ENDBRANCH  12  44
BRANCH  28  48
ATOM     48  O   UNL     1      12.731  68.643  18.217  1.00  0.00    -0.381 OA
ATOM     49  H   UNL     1      13.192  68.624  19.074  1.00  0.00    +0.212 HD
ENDBRANCH  28  48
BRANCH  36  50
ATOM     50  O   UNL     1      10.899  70.486  14.549  1.00  0.00    -0.386 OA
ATOM     51  H   UNL     1      11.494  69.988  13.956  1.00  0.00    +0.211 HD
ENDBRANCH  36  50
ENDBRANCH   8   9
ENDBRANCH   2   8
BRANCH   4  52
ATOM     52  O   UNL     1      21.427  63.599  20.721  1.00  0.00    -0.378 OA
ATOM     53  C   UNL     1      20.961  62.377  20.156  1.00  0.00    +0.195 C 
ENDBRANCH   4  52
BRANCH   3  54
ATOM     54  O   UNL     1      24.105  64.577  19.412  1.00  0.00    -0.344 OA
BRANCH  54  55
ATOM     55  C   UNL     1      23.675  63.967  18.190  1.00  0.00    +0.253 C 
ATOM     56  O   UNL     1      23.980  62.576  18.252  1.00  0.00    -0.347 OA
ATOM     57  C   UNL     1      24.393  64.704  17.060  1.00  0.00    +0.097 C 
ATOM     58  C   UNL     1      24.220  61.927  17.004  1.00  0.00    +0.149 C 
ATOM     59  C   UNL     1      25.694  64.003  16.707  1.00  0.00    +0.154 C 
ATOM     60  C   UNL     1      25.412  62.558  16.252  1.00  0.00    +0.172 C 
ATOM     61  C   UNL     1      22.945  61.863  16.165  1.00  0.00    +0.041 C 
BRANCH  59  62
ATOM     62  O   UNL     1      26.326  64.696  15.614  1.00  0.00    -0.378 OA
ATOM     63  C   UNL     1      25.689  64.449  14.367  1.00  0.00    +0.195 C 
ENDBRANCH  59  62
BRANCH  60  64
ATOM     64  O   UNL     1      26.605  61.787  16.504  1.00  0.00    -0.388 OA
ATOM     65  H   UNL     1      27.361  62.394  16.460  1.00  0.00    +0.211 HD
ENDBRANCH  60  64
ENDBRANCH  54  55
ENDBRANCH   3  54
TORSDOF 11
ENDMDL
MODEL 5
REMARK VINA RESULT:    -8.133      1.242      2.295
REMARK INTER + INTRA:         -14.756
REMARK INTER:                 -13.560
REMARK INTRA:                  -1.196
REMARK UNBOUND:                -2.106
REMARK SMILES CC[C@H](C)[C@H]1O[C@]2(CC[C@@H]1C)C[C@@H]1C[C@@H](C/C=C(\C)[C@@H](O[C@H]3C[C@H](OC)[C@@H](O[C@H]4C[C@H](OC)[C@@H](O)[C@H](C)O4)[C@H](C)O3)[C@@H](C)/C=C/C=C3\CO[C@@H]4[C@H](O)C(C)=C[C@@H](C(=O)O1)[C@]34O)O2
REMARK SMILES IDX 41 1 22 2 27 3 24 4 23 5 39 6 40 7 21 8 20 9 6 10 7 11 5 12
REMARK SMILES IDX 62 13 8 14 12 15 10 16 15 17 9 18 13 19 14 20 16 21 59 22
REMARK SMILES IDX 17 23 57 24 18 25 58 26 56 27 60 28 55 29 42 30 50 31 47 32
REMARK SMILES IDX 53 33 44 34 49 35 51 36 48 37 46 38 45 39 11 40 19 41 43 42
REMARK SMILES IDX 54 43 3 44 4 45 2 46 1 47 61 48 52 50 25 52 26 53 28 54
REMARK SMILES IDX 29 55 38 56 30 57 36 58 31 59 34 60 37 61 32 62 33 63 35 64
REMARK H PARENT 61 49 52 51 35 65
ROOT
ATOM      1  O   UNL     1      10.791  72.816  21.616  1.00  0.00    -0.347 OA
ATOM      2  C   UNL     1      11.538  73.145  22.786  1.00  0.00    +0.253 C 
ATOM      3  C   UNL     1       9.179  74.497  22.425  1.00  0.00    +0.179 C 
ATOM      4  C   UNL     1      10.285  75.296  23.152  1.00  0.00    +0.154 C 
ATOM      5  C   UNL     1      11.662  74.656  22.975  1.00  0.00    +0.097 C 
ATOM      6  C   UNL     1       9.793  73.763  21.223  1.00  0.00    +0.150 C 
ATOM      7  C   UNL     1       8.743  72.997  20.421  1.00  0.00    +0.041 C 
ENDROOT
BRANCH   2   8
ATOM      8  O   UNL     1      12.859  72.625  22.642  1.00  0.00    -0.344 OA
BRANCH   8   9
ATOM      9  C   UNL     1      13.900  73.605  22.485  1.00  0.00    +0.153 C 
ATOM     10  O   UNL     1      16.960  69.442  17.489  1.00  0.00    -0.346 OA
ATOM     11  C   UNL     1      18.031  70.390  17.579  1.00  0.00    +0.172 C 
ATOM     12  C   UNL     1      16.323  69.410  16.210  1.00  0.00    +0.127 C 
ATOM     13  O   UNL     1      17.533  71.703  17.885  1.00  0.00    -0.346 OA
ATOM     14  C   UNL     1      18.800  70.510  16.246  1.00  0.00    +0.066 C 
ATOM     15  C   UNL     1      18.981  69.914  18.692  1.00  0.00    +0.111 C 
ATOM     16  C   UNL     1      17.299  68.784  15.180  1.00  0.00    +0.015 C 
ATOM     17  C   UNL     1      16.801  71.774  19.115  1.00  0.00    +0.129 C 
ATOM     18  C   UNL     1      18.754  69.206  15.462  1.00  0.00    +0.011 C 
ATOM     19  C   UNL     1      18.278  69.951  20.042  1.00  0.00    +0.184 C 
ATOM     20  C   UNL     1      17.691  71.333  20.268  1.00  0.00    +0.078 C 
ATOM     21  C   UNL     1      16.304  73.225  19.302  1.00  0.00    +0.059 C 
ATOM     22  O   UNL     1      19.210  69.764  21.124  1.00  0.00    -0.462 OA
ATOM     23  C   UNL     1      15.692  73.468  20.663  1.00  0.00    -0.023 C 
ATOM     24  C   UNL     1      19.423  68.496  21.580  1.00  0.00    +0.316 C 
ATOM     25  C   UNL     1      14.391  73.479  21.023  1.00  0.00    -0.048 C 
ATOM     26  O   UNL     1      19.047  67.480  21.016  1.00  0.00    -0.251 OA
ATOM     27  C   UNL     1      20.206  68.584  22.889  1.00  0.00    +0.161 C 
ATOM     28  C   UNL     1      19.248  68.699  24.107  1.00  0.00    +0.134 C 
ATOM     29  C   UNL     1      21.215  67.469  23.022  1.00  0.00    -0.007 C 
ATOM     30  C   UNL     1      14.975  73.444  23.625  1.00  0.00    +0.042 C 
ATOM     31  C   UNL     1      20.041  68.667  25.412  1.00  0.00    +0.188 C 
ATOM     32  C   UNL     1      18.670  70.091  24.251  1.00  0.00    -0.009 C 
ATOM     33  C   UNL     1      21.615  66.992  24.215  1.00  0.00    -0.045 C 
ATOM     34  C   UNL     1      15.599  72.057  23.664  1.00  0.00    -0.021 C 
ATOM     35  O   UNL     1      20.684  69.966  25.470  1.00  0.00    -0.367 OA
ATOM     36  C   UNL     1      21.043  67.500  25.516  1.00  0.00    +0.172 C 
ATOM     37  C   UNL     1      19.696  70.908  24.986  1.00  0.00    +0.195 C 
ATOM     38  C   UNL     1      17.432  70.466  23.884  1.00  0.00    +0.004 C 
ATOM     39  C   UNL     1      16.878  71.798  23.989  1.00  0.00    -0.004 C 
ATOM     40  C   UNL     1      16.890  69.145  13.749  1.00  0.00    +0.010 C 
ATOM     41  C   UNL     1      13.278  73.361  20.007  1.00  0.00    +0.042 C 
ATOM     42  C   UNL     1      14.414  73.768  25.012  1.00  0.00    +0.015 C 
ATOM     43  C   UNL     1      22.621  65.879  24.318  1.00  0.00    +0.042 C 
BRANCH  12  44
ATOM     44  C   UNL     1      14.968  68.660  16.341  1.00  0.00    +0.015 C 
ATOM     45  C   UNL     1      14.594  68.361  17.801  1.00  0.00    +0.010 C 
BRANCH  44  46
ATOM     46  C   UNL     1      13.795  69.445  15.704  1.00  0.00    +0.002 C 
ATOM     47  C   UNL     1      13.894  70.955  15.867  1.00  0.00    +0.004 C 
ENDBRANCH  44  46
ENDBRANCH  12  44
BRANCH  28  48
ATOM     48  O   UNL     1      18.242  67.695  24.110  1.00  0.00    -0.381 OA
ATOM     49  H   UNL     1      18.171  67.328  25.009  1.00  0.00    +0.212 HD
ENDBRANCH  28  48
BRANCH  36  50
ATOM     50  O   UNL     1      22.119  67.882  26.377  1.00  0.00    -0.386 OA
ATOM     51  H   UNL     1      21.724  67.938  27.269  1.00  0.00    +0.211 HD
ENDBRANCH  36  50
ENDBRANCH   8   9
ENDBRANCH   2   8
BRANCH   4  52
ATOM     52  O   UNL     1       9.941  75.345  24.553  1.00  0.00    -0.378 OA
ATOM     53  C   UNL     1       9.903  76.671  25.072  1.00  0.00    +0.195 C 
ENDBRANCH   4  52
BRANCH   3  54
ATOM     54  O   UNL     1       8.169  75.406  21.964  1.00  0.00    -0.344 OA
BRANCH  54  55
ATOM     55  C   UNL     1       6.971  75.351  22.744  1.00  0.00    +0.253 C 
ATOM     56  O   UNL     1       7.218  74.537  23.889  1.00  0.00    -0.347 OA
ATOM     57  C   UNL     1       5.878  74.807  21.826  1.00  0.00    +0.097 C 
ATOM     58  C   UNL     1       6.088  73.858  24.435  1.00  0.00    +0.149 C 
ATOM     59  C   UNL     1       5.779  73.295  21.953  1.00  0.00    +0.154 C 
ATOM     60  C   UNL     1       5.442  72.904  23.405  1.00  0.00    +0.172 C 
ATOM     61  C   UNL     1       5.096  74.846  25.045  1.00  0.00    +0.041 C 
BRANCH  59  62
ATOM     62  O   UNL     1       4.715  72.816  21.108  1.00  0.00    -0.378 OA
ATOM     63  C   UNL     1       5.119  72.661  19.754  1.00  0.00    +0.195 C 
ENDBRANCH  59  62
BRANCH  60  64
ATOM     64  O   UNL     1       5.933  71.564  23.614  1.00  0.00    -0.388 OA
ATOM     65  H   UNL     1       6.878  71.560  23.394  1.00  0.00    +0.211 HD
ENDBRANCH  60  64
ENDBRANCH  54  55
ENDBRANCH   3  54
TORSDOF 11
ENDMDL
MODEL 6
REMARK VINA RESULT:    -7.717      4.449     13.630
REMARK INTER + INTRA:         -14.109
REMARK INTER:                 -12.466
REMARK INTRA:                  -1.644
REMARK UNBOUND:                -2.106
REMARK SMILES CC[C@H](C)[C@H]1O[C@]2(CC[C@@H]1C)C[C@@H]1C[C@@H](C/C=C(\C)[C@@H](O[C@H]3C[C@H](OC)[C@@H](O[C@H]4C[C@H](OC)[C@@H](O)[C@H](C)O4)[C@H](C)O3)[C@@H](C)/C=C/C=C3\CO[C@@H]4[C@H](O)C(C)=C[C@@H](C(=O)O1)[C@]34O)O2
REMARK SMILES IDX 41 1 22 2 27 3 24 4 23 5 39 6 40 7 21 8 20 9 6 10 7 11 5 12
REMARK SMILES IDX 62 13 8 14 12 15 10 16 15 17 9 18 13 19 14 20 16 21 59 22
REMARK SMILES IDX 17 23 57 24 18 25 58 26 56 27 60 28 55 29 42 30 50 31 47 32
REMARK SMILES IDX 53 33 44 34 49 35 51 36 48 37 46 38 45 39 11 40 19 41 43 42
REMARK SMILES IDX 54 43 3 44 4 45 2 46 1 47 61 48 52 50 25 52 26 53 28 54
REMARK SMILES IDX 29 55 38 56 30 57 36 58 31 59 34 60 37 61 32 62 33 63 35 64
REMARK H PARENT 61 49 52 51 35 65
ROOT
ATOM      1  O   UNL     1      20.986  66.134  18.713  1.00  0.00    -0.347 OA
ATOM      2  C   UNL     1      21.062  67.190  19.668  1.00  0.00    +0.253 C 
ATOM      3  C   UNL     1      22.866  65.146  19.966  1.00  0.00    +0.179 C 
ATOM      4  C   UNL     1      22.423  65.823  21.284  1.00  0.00    +0.154 C 
ATOM      5  C   UNL     1      21.157  66.660  21.098  1.00  0.00    +0.097 C 
ATOM      6  C   UNL     1      21.634  64.911  19.079  1.00  0.00    +0.150 C 
ATOM      7  C   UNL     1      21.990  64.190  17.781  1.00  0.00    +0.041 C 
ENDROOT
BRANCH   2   8
ATOM      8  O   UNL     1      19.869  67.968  19.581  1.00  0.00    -0.344 OA
BRANCH   8   9
ATOM      9  C   UNL     1      20.033  69.304  19.073  1.00  0.00    +0.153 C 
ATOM     10  O   UNL     1      15.071  71.603  23.737  1.00  0.00    -0.346 OA
ATOM     11  C   UNL     1      15.182  72.833  23.009  1.00  0.00    +0.172 C 
ATOM     12  C   UNL     1      15.479  71.702  25.103  1.00  0.00    +0.127 C 
ATOM     13  O   UNL     1      16.517  73.018  22.511  1.00  0.00    -0.346 OA
ATOM     14  C   UNL     1      14.869  74.054  23.900  1.00  0.00    +0.066 C 
ATOM     15  C   UNL     1      14.187  72.770  21.837  1.00  0.00    +0.111 C 
ATOM     16  C   UNL     1      14.435  72.548  25.878  1.00  0.00    +0.015 C 
ATOM     17  C   UNL     1      16.964  71.970  21.642  1.00  0.00    +0.129 C 
ATOM     18  C   UNL     1      13.887  73.694  25.006  1.00  0.00    +0.011 C 
ATOM     19  C   UNL     1      14.584  71.670  20.861  1.00  0.00    +0.184 C 
ATOM     20  C   UNL     1      16.032  71.864  20.444  1.00  0.00    +0.078 C 
ATOM     21  C   UNL     1      18.414  72.283  21.209  1.00  0.00    +0.059 C 
ATOM     22  O   UNL     1      13.832  71.760  19.636  1.00  0.00    -0.462 OA
ATOM     23  C   UNL     1      18.921  71.352  20.131  1.00  0.00    -0.023 C 
ATOM     24  C   UNL     1      12.673  71.046  19.538  1.00  0.00    +0.316 C 
ATOM     25  C   UNL     1      19.696  70.254  20.248  1.00  0.00    -0.048 C 
ATOM     26  O   UNL     1      12.110  70.499  20.473  1.00  0.00    -0.251 OA
ATOM     27  C   UNL     1      12.220  71.069  18.078  1.00  0.00    +0.161 C 
ATOM     28  C   UNL     1      12.839  69.885  17.284  1.00  0.00    +0.134 C 
ATOM     29  C   UNL     1      10.718  71.157  17.952  1.00  0.00    -0.007 C 
ATOM     30  C   UNL     1      19.213  69.484  17.740  1.00  0.00    +0.042 C 
ATOM     31  C   UNL     1      12.284  69.853  15.860  1.00  0.00    +0.188 C 
ATOM     32  C   UNL     1      14.291  70.127  16.934  1.00  0.00    -0.009 C 
ATOM     33  C   UNL     1      10.050  70.660  16.896  1.00  0.00    -0.045 C 
ATOM     34  C   UNL     1      17.729  69.195  17.910  1.00  0.00    -0.021 C 
ATOM     35  O   UNL     1      12.933  70.971  15.201  1.00  0.00    -0.367 OA
ATOM     36  C   UNL     1      10.747  69.923  15.778  1.00  0.00    +0.172 C 
ATOM     37  C   UNL     1      14.298  70.965  15.685  1.00  0.00    +0.195 C 
ATOM     38  C   UNL     1      15.349  69.593  17.569  1.00  0.00    +0.004 C 
ATOM     39  C   UNL     1      16.742  69.839  17.264  1.00  0.00    -0.004 C 
ATOM     40  C   UNL     1      15.027  73.086  27.184  1.00  0.00    +0.010 C 
ATOM     41  C   UNL     1      20.311  69.844  21.567  1.00  0.00    +0.042 C 
ATOM     42  C   UNL     1      19.753  68.621  16.597  1.00  0.00    +0.015 C 
ATOM     43  C   UNL     1       8.553  70.760  16.796  1.00  0.00    +0.042 C 
BRANCH  12  44
ATOM     44  C   UNL     1      15.689  70.271  25.672  1.00  0.00    +0.015 C 
ATOM     45  C   UNL     1      14.369  69.596  26.081  1.00  0.00    +0.010 C 
BRANCH  44  46
ATOM     46  C   UNL     1      16.406  69.336  24.668  1.00  0.00    +0.002 C 
ATOM     47  C   UNL     1      17.882  69.652  24.467  1.00  0.00    +0.004 C 
ENDBRANCH  44  46
ENDBRANCH  12  44
BRANCH  28  48
ATOM     48  O   UNL     1      12.640  68.631  17.924  1.00  0.00    -0.381 OA
ATOM     49  H   UNL     1      12.953  67.926  17.331  1.00  0.00    +0.212 HD
ENDBRANCH  28  48
BRANCH  36  50
ATOM     50  O   UNL     1      10.371  70.513  14.531  1.00  0.00    -0.386 OA
ATOM     51  H   UNL     1       9.424  70.734  14.629  1.00  0.00    +0.211 HD
ENDBRANCH  36  50
ENDBRANCH   8   9
ENDBRANCH   2   8
BRANCH   4  52
ATOM     52  O   UNL     1      23.507  66.662  21.731  1.00  0.00    -0.378 OA
ATOM     53  C   UNL     1      23.902  66.396  23.073  1.00  0.00    +0.195 C 
ENDBRANCH   4  52
BRANCH   3  54
ATOM     54  O   UNL     1      23.482  63.886  20.270  1.00  0.00    -0.344 OA
BRANCH  54  55
ATOM     55  C   UNL     1      22.913  63.250  21.419  1.00  0.00    +0.253 C 
ATOM     56  O   UNL     1      23.976  62.759  22.232  1.00  0.00    -0.347 OA
ATOM     57  C   UNL     1      21.984  62.156  20.895  1.00  0.00    +0.097 C 
ATOM     58  C   UNL     1      23.680  61.616  23.035  1.00  0.00    +0.149 C 
ATOM     59  C   UNL     1      22.724  60.832  20.789  1.00  0.00    +0.154 C 
ATOM     60  C   UNL     1      23.253  60.408  22.173  1.00  0.00    +0.172 C 
ATOM     61  C   UNL     1      22.672  61.962  24.129  1.00  0.00    +0.041 C 
BRANCH  59  62
ATOM     62  O   UNL     1      21.814  59.814  20.332  1.00  0.00    -0.378 OA
ATOM     63  C   UNL     1      20.605  59.784  21.081  1.00  0.00    +0.195 C 
ENDBRANCH  59  62
BRANCH  60  64
ATOM     64  O   UNL     1      24.389  59.546  21.953  1.00  0.00    -0.388 OA
ATOM     65  H   UNL     1      24.663  59.653  21.028  1.00  0.00    +0.211 HD
ENDBRANCH  60  64
ENDBRANCH  54  55
ENDBRANCH   3  54
TORSDOF 11
ENDMDL
MODEL 7
REMARK VINA RESULT:    -7.396      1.563      2.113
REMARK INTER + INTRA:         -13.610
REMARK INTER:                 -12.229
REMARK INTRA:                  -1.381
REMARK UNBOUND:                -2.106
REMARK SMILES CC[C@H](C)[C@H]1O[C@]2(CC[C@@H]1C)C[C@@H]1C[C@@H](C/C=C(\C)[C@@H](O[C@H]3C[C@H](OC)[C@@H](O[C@H]4C[C@H](OC)[C@@H](O)[C@H](C)O4)[C@H](C)O3)[C@@H](C)/C=C/C=C3\CO[C@@H]4[C@H](O)C(C)=C[C@@H](C(=O)O1)[C@]34O)O2
REMARK SMILES IDX 41 1 22 2 27 3 24 4 23 5 39 6 40 7 21 8 20 9 6 10 7 11 5 12
REMARK SMILES IDX 62 13 8 14 12 15 10 16 15 17 9 18 13 19 14 20 16 21 59 22
REMARK SMILES IDX 17 23 57 24 18 25 58 26 56 27 60 28 55 29 42 30 50 31 47 32
REMARK SMILES IDX 53 33 44 34 49 35 51 36 48 37 46 38 45 39 11 40 19 41 43 42
REMARK SMILES IDX 54 43 3 44 4 45 2 46 1 47 61 48 52 50 25 52 26 53 28 54
REMARK SMILES IDX 29 55 38 56 30 57 36 58 31 59 34 60 37 61 32 62 33 63 35 64
REMARK H PARENT 61 49 52 51 35 65
ROOT
ATOM      1  O   UNL     1      11.322  74.160  23.379  1.00  0.00    -0.347 OA
ATOM      2  C   UNL     1      11.567  73.214  22.340  1.00  0.00    +0.253 C 
ATOM      3  C   UNL     1       8.948  73.905  22.765  1.00  0.00    +0.179 C 
ATOM      4  C   UNL     1       9.168  72.458  22.268  1.00  0.00    +0.154 C 
ATOM      5  C   UNL     1      10.623  72.016  22.426  1.00  0.00    +0.097 C 
ATOM      6  C   UNL     1       9.976  74.226  23.861  1.00  0.00    +0.150 C 
ATOM      7  C   UNL     1       9.779  75.624  24.442  1.00  0.00    +0.041 C 
ENDROOT
BRANCH   2   8
ATOM      8  O   UNL     1      12.897  72.719  22.482  1.00  0.00    -0.344 OA
BRANCH   8   9
ATOM      9  C   UNL     1      13.944  73.691  22.310  1.00  0.00    +0.153 C 
ATOM     10  O   UNL     1      16.971  69.446  17.364  1.00  0.00    -0.346 OA
ATOM     11  C   UNL     1      18.048  70.389  17.439  1.00  0.00    +0.172 C 
ATOM     12  C   UNL     1      16.332  69.401  16.086  1.00  0.00    +0.127 C 
ATOM     13  O   UNL     1      17.558  71.708  17.729  1.00  0.00    -0.346 OA
ATOM     14  C   UNL     1      18.816  70.486  16.103  1.00  0.00    +0.066 C 
ATOM     15  C   UNL     1      18.997  69.922  18.557  1.00  0.00    +0.111 C 
ATOM     16  C   UNL     1      17.303  68.756  15.062  1.00  0.00    +0.015 C 
ATOM     17  C   UNL     1      16.829  71.799  18.959  1.00  0.00    +0.129 C 
ATOM     18  C   UNL     1      18.760  69.174  15.336  1.00  0.00    +0.011 C 
ATOM     19  C   UNL     1      18.297  69.980  19.907  1.00  0.00    +0.184 C 
ATOM     20  C   UNL     1      17.718  71.369  20.116  1.00  0.00    +0.078 C 
ATOM     21  C   UNL     1      16.340  73.255  19.128  1.00  0.00    +0.059 C 
ATOM     22  O   UNL     1      19.230  69.802  20.990  1.00  0.00    -0.462 OA
ATOM     23  C   UNL     1      15.732  73.520  20.487  1.00  0.00    -0.023 C 
ATOM     24  C   UNL     1      19.436  68.539  21.462  1.00  0.00    +0.316 C 
ATOM     25  C   UNL     1      14.432  73.543  20.849  1.00  0.00    -0.048 C 
ATOM     26  O   UNL     1      19.053  67.518  20.912  1.00  0.00    -0.251 OA
ATOM     27  C   UNL     1      20.222  68.639  22.769  1.00  0.00    +0.161 C 
ATOM     28  C   UNL     1      19.267  68.776  23.986  1.00  0.00    +0.134 C 
ATOM     29  C   UNL     1      21.225  67.520  22.915  1.00  0.00    -0.007 C 
ATOM     30  C   UNL     1      15.021  73.539  23.451  1.00  0.00    +0.042 C 
ATOM     31  C   UNL     1      20.062  68.755  25.291  1.00  0.00    +0.188 C 
ATOM     32  C   UNL     1      18.697  70.172  24.113  1.00  0.00    -0.009 C 
ATOM     33  C   UNL     1      21.623  67.056  24.112  1.00  0.00    -0.045 C 
ATOM     34  C   UNL     1      15.637  72.149  23.506  1.00  0.00    -0.021 C 
ATOM     35  O   UNL     1      20.713  70.052  25.330  1.00  0.00    -0.367 OA
ATOM     36  C   UNL     1      21.057  67.585  25.408  1.00  0.00    +0.172 C 
ATOM     37  C   UNL     1      19.729  70.993  24.836  1.00  0.00    +0.195 C 
ATOM     38  C   UNL     1      17.461  70.550  23.744  1.00  0.00    +0.004 C 
ATOM     39  C   UNL     1      16.914  71.886  23.832  1.00  0.00    -0.004 C 
ATOM     40  C   UNL     1      16.893  69.101  13.628  1.00  0.00    +0.010 C 
ATOM     41  C   UNL     1      13.316  73.418  19.837  1.00  0.00    +0.042 C 
ATOM     42  C   UNL     1      14.464  73.884  24.834  1.00  0.00    +0.015 C 
ATOM     43  C   UNL     1      22.623  65.939  24.229  1.00  0.00    +0.042 C 
BRANCH  12  44
ATOM     44  C   UNL     1      14.973  68.661  16.229  1.00  0.00    +0.015 C 
ATOM     45  C   UNL     1      14.629  68.327  17.690  1.00  0.00    +0.010 C 
BRANCH  44  46
ATOM     46  C   UNL     1      13.793  69.472  15.640  1.00  0.00    +0.002 C 
ATOM     47  C   UNL     1      13.929  70.979  15.806  1.00  0.00    +0.004 C 
ENDBRANCH  44  46
ENDBRANCH  12  44
BRANCH  28  48
ATOM     48  O   UNL     1      18.255  67.777  24.005  1.00  0.00    -0.381 OA
ATOM     49  H   UNL     1      17.937  67.638  23.095  1.00  0.00    +0.212 HD
ENDBRANCH  28  48
BRANCH  36  50
ATOM     50  O   UNL     1      22.137  67.971  26.262  1.00  0.00    -0.386 OA
ATOM     51  H   UNL     1      21.950  68.899  26.504  1.00  0.00    +0.211 HD
ENDBRANCH  36  50
ENDBRANCH   8   9
ENDBRANCH   2   8
BRANCH   4  52
ATOM     52  O   UNL     1       8.787  72.410  20.877  1.00  0.00    -0.378 OA
ATOM     53  C   UNL     1       9.595  71.525  20.108  1.00  0.00    +0.195 C 
ENDBRANCH   4  52
BRANCH   3  54
ATOM     54  O   UNL     1       7.623  74.018  23.307  1.00  0.00    -0.344 OA
BRANCH  54  55
ATOM     55  C   UNL     1       7.274  72.924  24.159  1.00  0.00    +0.253 C 
ATOM     56  O   UNL     1       6.241  72.172  23.524  1.00  0.00    -0.347 OA
ATOM     57  C   UNL     1       6.858  73.530  25.498  1.00  0.00    +0.097 C 
ATOM     58  C   UNL     1       5.349  71.471  24.390  1.00  0.00    +0.149 C 
ATOM     59  C   UNL     1       5.357  73.764  25.536  1.00  0.00    +0.154 C 
ATOM     60  C   UNL     1       4.606  72.432  25.345  1.00  0.00    +0.172 C 
ATOM     61  C   UNL     1       6.068  70.336  25.116  1.00  0.00    +0.041 C 
BRANCH  59  62
ATOM     62  O   UNL     1       4.991  74.297  26.823  1.00  0.00    -0.378 OA
ATOM     63  C   UNL     1       5.145  73.351  27.872  1.00  0.00    +0.195 C 
ENDBRANCH  59  62
BRANCH  60  64
ATOM     64  O   UNL     1       3.307  72.744  24.802  1.00  0.00    -0.388 OA
ATOM     65  H   UNL     1       3.287  73.698  24.620  1.00  0.00    +0.211 HD
ENDBRANCH  60  64
ENDBRANCH  54  55
ENDBRANCH   3  54
TORSDOF 11
ENDMDL
MODEL 8
REMARK VINA RESULT:    -7.125      3.390     13.137
REMARK INTER + INTRA:         -13.189
REMARK INTER:                 -11.807
REMARK INTRA:                  -1.381
REMARK UNBOUND:                -2.106
REMARK SMILES CC[C@H](C)[C@H]1O[C@]2(CC[C@@H]1C)C[C@@H]1C[C@@H](C/C=C(\C)[C@@H](O[C@H]3C[C@H](OC)[C@@H](O[C@H]4C[C@H](OC)[C@@H](O)[C@H](C)O4)[C@H](C)O3)[C@@H](C)/C=C/C=C3\CO[C@@H]4[C@H](O)C(C)=C[C@@H](C(=O)O1)[C@]34O)O2
REMARK SMILES IDX 41 1 22 2 27 3 24 4 23 5 39 6 40 7 21 8 20 9 6 10 7 11 5 12
REMARK SMILES IDX 62 13 8 14 12 15 10 16 15 17 9 18 13 19 14 20 16 21 59 22
REMARK SMILES IDX 17 23 57 24 18 25 58 26 56 27 60 28 55 29 42 30 50 31 47 32
REMARK SMILES IDX 53 33 44 34 49 35 51 36 48 37 46 38 45 39 11 40 19 41 43 42
REMARK SMILES IDX 54 43 3 44 4 45 2 46 1 47 61 48 52 50 25 52 26 53 28 54
REMARK SMILES IDX 29 55 38 56 30 57 36 58 31 59 34 60 37 61 32 62 33 63 35 64
REMARK H PARENT 61 49 52 51 35 65
ROOT
ATOM      1  O   UNL     1      19.049  67.002  21.966  1.00  0.00    -0.347 OA
ATOM      2  C   UNL     1      19.383  68.274  21.413  1.00  0.00    +0.253 C 
ATOM      3  C   UNL     1      21.352  66.366  21.360  1.00  0.00    +0.179 C 
ATOM      4  C   UNL     1      21.856  67.821  21.502  1.00  0.00    +0.154 C 
ATOM      5  C   UNL     1      20.735  68.776  21.915  1.00  0.00    +0.097 C 
ATOM      6  C   UNL     1      20.152  66.153  22.296  1.00  0.00    +0.150 C 
ATOM      7  C   UNL     1      19.638  64.716  22.251  1.00  0.00    +0.041 C 
ENDROOT
BRANCH   2   8
ATOM      8  O   UNL     1      18.398  69.220  21.825  1.00  0.00    -0.344 OA
BRANCH   8   9
ATOM      9  C   UNL     1      18.595  70.567  21.357  1.00  0.00    +0.153 C 
ATOM     10  O   UNL     1      12.119  72.328  23.928  1.00  0.00    -0.346 OA
ATOM     11  C   UNL     1      12.354  73.563  23.239  1.00  0.00    +0.172 C 
ATOM     12  C   UNL     1      12.014  72.469  25.347  1.00  0.00    +0.127 C 
ATOM     13  O   UNL     1      13.754  73.889  23.229  1.00  0.00    -0.346 OA
ATOM     14  C   UNL     1      11.631  74.744  23.923  1.00  0.00    +0.066 C 
ATOM     15  C   UNL     1      11.841  73.397  21.799  1.00  0.00    +0.111 C 
ATOM     16  C   UNL     1      10.687  73.200  25.681  1.00  0.00    +0.015 C 
ATOM     17  C   UNL     1      14.576  72.894  22.607  1.00  0.00    +0.129 C 
ATOM     18  C   UNL     1      10.367  74.283  24.632  1.00  0.00    +0.011 C 
ATOM     19  C   UNL     1      12.660  72.346  21.061  1.00  0.00    +0.184 C 
ATOM     20  C   UNL     1      14.135  72.692  21.165  1.00  0.00    +0.078 C 
ATOM     21  C   UNL     1      16.048  73.358  22.691  1.00  0.00    +0.059 C 
ATOM     22  O   UNL     1      12.376  72.357  19.649  1.00  0.00    -0.462 OA
ATOM     23  C   UNL     1      16.988  72.486  21.890  1.00  0.00    -0.023 C 
ATOM     24  C   UNL     1      11.401  71.525  19.181  1.00  0.00    +0.316 C 
ATOM     25  C   UNL     1      17.778  71.475  22.308  1.00  0.00    -0.048 C 
ATOM     26  O   UNL     1      10.604  70.922  19.882  1.00  0.00    -0.251 OA
ATOM     27  C   UNL     1      11.485  71.501  17.656  1.00  0.00    +0.161 C 
ATOM     28  C   UNL     1      12.455  70.390  17.168  1.00  0.00    +0.134 C 
ATOM     29  C   UNL     1      10.120  71.432  17.013  1.00  0.00    -0.007 C 
ATOM     30  C   UNL     1      18.278  70.661  19.817  1.00  0.00    +0.042 C 
ATOM     31  C   UNL     1      12.437  70.301  15.642  1.00  0.00    +0.188 C 
ATOM     32  C   UNL     1      13.907  70.784  17.334  1.00  0.00    -0.009 C 
ATOM     33  C   UNL     1       9.914  70.867  15.810  1.00  0.00    -0.045 C 
ATOM     34  C   UNL     1      16.864  70.217  19.473  1.00  0.00    -0.021 C 
ATOM     35  O   UNL     1      13.161  71.481  15.209  1.00  0.00    -0.367 OA
ATOM     36  C   UNL     1      11.025  70.209  15.029  1.00  0.00    +0.172 C 
ATOM     37  C   UNL     1      14.265  71.619  16.136  1.00  0.00    +0.195 C 
ATOM     38  C   UNL     1      14.724  70.363  18.314  1.00  0.00    +0.004 C 
ATOM     39  C   UNL     1      16.104  70.754  18.502  1.00  0.00    -0.004 C 
ATOM     40  C   UNL     1      10.731  73.796  27.091  1.00  0.00    +0.010 C 
ATOM     41  C   UNL     1      17.933  71.132  23.772  1.00  0.00    +0.042 C 
ATOM     42  C   UNL     1      19.264  69.860  18.964  1.00  0.00    +0.015 C 
ATOM     43  C   UNL     1       8.543  70.810  15.194  1.00  0.00    +0.042 C 
BRANCH  12  44
ATOM     44  C   UNL     1      12.152  71.068  26.003  1.00  0.00    +0.015 C 
ATOM     45  C   UNL     1      10.833  70.279  26.004  1.00  0.00    +0.010 C 
BRANCH  44  46
ATOM     46  C   UNL     1      13.225  70.193  25.309  1.00  0.00    +0.002 C 
ATOM     47  C   UNL     1      12.718  68.833  24.850  1.00  0.00    +0.004 C 
ENDBRANCH  44  46
ENDBRANCH  12  44
BRANCH  28  48
ATOM     48  O   UNL     1      12.171  69.122  17.744  1.00  0.00    -0.381 OA
ATOM     49  H   UNL     1      11.239  68.902  17.570  1.00  0.00    +0.212 HD
ENDBRANCH  28  48
BRANCH  36  50
ATOM     50  O   UNL     1      11.051  70.757  13.709  1.00  0.00    -0.386 OA
ATOM     51  H   UNL     1      11.922  70.505  13.346  1.00  0.00    +0.211 HD
ENDBRANCH  36  50
ENDBRANCH   8   9
ENDBRANCH   2   8
BRANCH   4  52
ATOM     52  O   UNL     1      22.400  68.222  20.227  1.00  0.00    -0.378 OA
ATOM     53  C   UNL     1      23.803  68.463  20.270  1.00  0.00    +0.195 C 
ENDBRANCH   4  52
BRANCH   3  54
ATOM     54  O   UNL     1      22.408  65.466  21.726  1.00  0.00    -0.344 OA
BRANCH  54  55
ATOM     55  C   UNL     1      22.895  64.698  20.621  1.00  0.00    +0.253 C 
ATOM     56  O   UNL     1      21.861  64.615  19.643  1.00  0.00    -0.347 OA
ATOM     57  C   UNL     1      23.317  63.343  21.186  1.00  0.00    +0.097 C 
ATOM     58  C   UNL     1      21.873  63.457  18.809  1.00  0.00    +0.149 C 
ATOM     59  C   UNL     1      22.171  62.348  21.101  1.00  0.00    +0.154 C 
ATOM     60  C   UNL     1      21.740  62.158  19.634  1.00  0.00    +0.172 C 
ATOM     61  C   UNL     1      23.088  63.461  17.883  1.00  0.00    +0.041 C 
BRANCH  59  62
ATOM     62  O   UNL     1      22.611  61.071  21.602  1.00  0.00    -0.378 OA
ATOM     63  C   UNL     1      23.191  61.162  22.897  1.00  0.00    +0.195 C 
ENDBRANCH  59  62
BRANCH  60  64
ATOM     64  O   UNL     1      20.363  61.730  19.642  1.00  0.00    -0.388 OA
ATOM     65  H   UNL     1      19.926  62.162  20.394  1.00  0.00    +0.211 HD
ENDBRANCH  60  64
ENDBRANCH  54  55
ENDBRANCH   3  54
TORSDOF 11
ENDMDL
MODEL 9
REMARK VINA RESULT:    -7.121      4.412     13.778
REMARK INTER + INTRA:         -13.182
REMARK INTER:                 -11.694
REMARK INTRA:                  -1.489
REMARK UNBOUND:                -2.106
REMARK SMILES CC[C@H](C)[C@H]1O[C@]2(CC[C@@H]1C)C[C@@H]1C[C@@H](C/C=C(\C)[C@@H](O[C@H]3C[C@H](OC)[C@@H](O[C@H]4C[C@H](OC)[C@@H](O)[C@H](C)O4)[C@H](C)O3)[C@@H](C)/C=C/C=C3\CO[C@@H]4[C@H](O)C(C)=C[C@@H](C(=O)O1)[C@]34O)O2
REMARK SMILES IDX 41 1 22 2 27 3 24 4 23 5 39 6 40 7 21 8 20 9 6 10 7 11 5 12
REMARK SMILES IDX 62 13 8 14 12 15 10 16 15 17 9 18 13 19 14 20 16 21 59 22
REMARK SMILES IDX 17 23 57 24 18 25 58 26 56 27 60 28 55 29 42 30 50 31 47 32
REMARK SMILES IDX 53 33 44 34 49 35 51 36 48 37 46 38 45 39 11 40 19 41 43 42
REMARK SMILES IDX 54 43 3 44 4 45 2 46 1 47 61 48 52 50 25 52 26 53 28 54
REMARK SMILES IDX 29 55 38 56 30 57 36 58 31 59 34 60 37 61 32 62 33 63 35 64
REMARK H PARENT 61 49 52 51 35 65
ROOT
ATOM      1  O   UNL     1      20.209  65.546  20.392  1.00  0.00    -0.347 OA
ATOM      2  C   UNL     1      20.456  66.706  19.599  1.00  0.00    +0.253 C 
ATOM      3  C   UNL     1      22.501  64.888  19.768  1.00  0.00    +0.179 C 
ATOM      4  C   UNL     1      22.948  66.360  19.614  1.00  0.00    +0.154 C 
ATOM      5  C   UNL     1      21.811  67.336  19.918  1.00  0.00    +0.097 C 
ATOM      6  C   UNL     1      21.366  64.809  20.799  1.00  0.00    +0.150 C 
ATOM      7  C   UNL     1      20.914  63.371  21.046  1.00  0.00    +0.041 C 
ENDROOT
BRANCH   2   8
ATOM      8  O   UNL     1      19.455  67.679  19.895  1.00  0.00    -0.344 OA
BRANCH   8   9
ATOM      9  C   UNL     1      19.692  68.996  19.368  1.00  0.00    +0.153 C 
ATOM     10  O   UNL     1      14.649  71.590  23.784  1.00  0.00    -0.346 OA
ATOM     11  C   UNL     1      14.838  72.798  23.036  1.00  0.00    +0.172 C 
ATOM     12  C   UNL     1      15.007  71.702  25.163  1.00  0.00    +0.127 C 
ATOM     13  O   UNL     1      16.198  72.920  22.589  1.00  0.00    -0.346 OA
ATOM     14  C   UNL     1      14.540  74.049  23.890  1.00  0.00    +0.066 C 
ATOM     15  C   UNL     1      13.887  72.749  21.827  1.00  0.00    +0.111 C 
ATOM     16  C   UNL     1      13.969  72.605  25.879  1.00  0.00    +0.015 C 
ATOM     17  C   UNL     1      16.635  71.837  21.759  1.00  0.00    +0.129 C 
ATOM     18  C   UNL     1      13.502  73.753  24.963  1.00  0.00    +0.011 C 
ATOM     19  C   UNL     1      14.277  71.614  20.890  1.00  0.00    +0.184 C 
ATOM     20  C   UNL     1      15.747  71.742  20.528  1.00  0.00    +0.078 C 
ATOM     21  C   UNL     1      18.112  72.082  21.378  1.00  0.00    +0.059 C 
ATOM     22  O   UNL     1      13.578  71.707  19.635  1.00  0.00    -0.462 OA
ATOM     23  C   UNL     1      18.623  71.110  20.339  1.00  0.00    -0.023 C 
ATOM     24  C   UNL     1      12.396  71.038  19.505  1.00  0.00    +0.316 C 
ATOM     25  C   UNL     1      19.348  69.984  20.510  1.00  0.00    -0.048 C 
ATOM     26  O   UNL     1      11.775  70.534  20.427  1.00  0.00    -0.251 OA
ATOM     27  C   UNL     1      12.002  71.047  18.028  1.00  0.00    +0.161 C 
ATOM     28  C   UNL     1      12.603  69.823  17.283  1.00  0.00    +0.134 C 
ATOM     29  C   UNL     1      10.511  71.192  17.840  1.00  0.00    -0.007 C 
ATOM     30  C   UNL     1      18.933  69.180  18.000  1.00  0.00    +0.042 C 
ATOM     31  C   UNL     1      12.103  69.782  15.839  1.00  0.00    +0.188 C 
ATOM     32  C   UNL     1      14.076  70.000  16.986  1.00  0.00    -0.009 C 
ATOM     33  C   UNL     1       9.864  70.699  16.769  1.00  0.00    -0.045 C 
ATOM     34  C   UNL     1      17.433  68.954  18.116  1.00  0.00    -0.021 C 
ATOM     35  O   UNL     1      12.822  70.859  15.184  1.00  0.00    -0.367 OA
ATOM     36  C   UNL     1      10.574  69.912  15.694  1.00  0.00    +0.172 C 
ATOM     37  C   UNL     1      14.165  70.810  15.722  1.00  0.00    +0.195 C 
ATOM     38  C   UNL     1      15.085  69.438  17.673  1.00  0.00    +0.004 C 
ATOM     39  C   UNL     1      16.498  69.622  17.419  1.00  0.00    -0.004 C 
ATOM     40  C   UNL     1      14.530  73.147  27.196  1.00  0.00    +0.010 C 
ATOM     41  C   UNL     1      19.894  69.579  21.859  1.00  0.00    +0.042 C 
ATOM     42  C   UNL     1      19.482  68.272  16.897  1.00  0.00    +0.015 C 
ATOM     43  C   UNL     1       8.377  70.856  16.608  1.00  0.00    +0.042 C 
BRANCH  12  44
ATOM     44  C   UNL     1      15.137  70.276  25.768  1.00  0.00    +0.015 C 
ATOM     45  C   UNL     1      14.165  69.270  25.129  1.00  0.00    +0.010 C 
BRANCH  44  46
ATOM     46  C   UNL     1      16.568  69.703  25.630  1.00  0.00    +0.002 C 
ATOM     47  C   UNL     1      16.808  68.928  24.341  1.00  0.00    +0.004 C 
ENDBRANCH  44  46
ENDBRANCH  12  44
BRANCH  28  48
ATOM     48  O   UNL     1      12.328  68.592  17.939  1.00  0.00    -0.381 OA
ATOM     49  H   UNL     1      12.217  67.898  17.266  1.00  0.00    +0.212 HD
ENDBRANCH  28  48
BRANCH  36  50
ATOM     50  O   UNL     1      10.271  70.488  14.421  1.00  0.00    -0.386 OA
ATOM     51  H   UNL     1      11.114  70.869  14.107  1.00  0.00    +0.211 HD
ENDBRANCH  36  50
ENDBRANCH   8   9
ENDBRANCH   2   8
BRANCH   4  52
ATOM     52  O   UNL     1      23.402  66.541  18.257  1.00  0.00    -0.378 OA
ATOM     53  C   UNL     1      23.004  67.788  17.696  1.00  0.00    +0.195 C 
ENDBRANCH   4  52
BRANCH   3  54
ATOM     54  O   UNL     1      23.615  64.105  20.223  1.00  0.00    -0.344 OA
BRANCH  54  55
ATOM     55  C   UNL     1      24.503  64.840  21.072  1.00  0.00    +0.253 C 
ATOM     56  O   UNL     1      25.843  64.535  20.690  1.00  0.00    -0.347 OA
ATOM     57  C   UNL     1      24.165  64.438  22.506  1.00  0.00    +0.097 C 
ATOM     58  C   UNL     1      26.828  64.631  21.719  1.00  0.00    +0.149 C 
ATOM     59  C   UNL     1      25.037  63.276  22.954  1.00  0.00    +0.154 C 
ATOM     60  C   UNL     1      26.525  63.672  22.891  1.00  0.00    +0.172 C 
ATOM     61  C   UNL     1      27.022  66.080  22.160  1.00  0.00    +0.041 C 
BRANCH  59  62
ATOM     62  O   UNL     1      24.725  62.946  24.321  1.00  0.00    -0.378 OA
ATOM     63  C   UNL     1      23.386  62.495  24.484  1.00  0.00    +0.195 C 
ENDBRANCH  59  62
BRANCH  60  64
ATOM     64  O   UNL     1      27.287  62.458  22.732  1.00  0.00    -0.388 OA
ATOM     65  H   UNL     1      27.345  62.032  23.602  1.00  0.00    +0.211 HD
ENDBRANCH  60  64
ENDBRANCH  54  55
ENDBRANCH   3  54
TORSDOF 11
ENDMDL
