MODEL 1
REMARK VINA RESULT:    -9.473      0.000      0.000
REMARK INTER + INTRA:         -16.370
REMARK INTER:                 -14.734
REMARK INTRA:                  -1.636
REMARK UNBOUND:                -1.636
REMARK SMILES CC[C@H](C)[C@H]1O[C@]2(CC[C@@H]1C)C[C@@H]1C[C@@H](C/C=C(\C)[C@@H](O[C@H]3C[C@H](OC)[C@@H](O[C@H]4C[C@H](OC)[C@@H](O)[C@H](C)O4)[C@H](C)O3)[C@@H](C)/C=C/C=C3\CO[C@@H]4[C@H](O)C(C)=C[C@@H](C(=O)O1)[C@]34O)O2
REMARK SMILES IDX 41 1 22 2 27 3 24 4 23 5 39 6 40 7 21 8 20 9 6 10 7 11 5 12
REMARK SMILES IDX 62 13 8 14 12 15 10 16 15 17 9 18 13 19 14 20 16 21 59 22
REMARK SMILES IDX 17 23 57 24 18 25 58 26 56 27 60 28 55 29 42 30 50 31 47 32
REMARK SMILES IDX 53 33 44 34 49 35 51 36 48 37 46 38 45 39 11 40 19 41 43 42
REMARK SMILES IDX 54 43 3 44 4 45 2 46 1 47 61 48 52 50 25 52 26 53 28 54
REMARK SMILES IDX 29 55 38 56 30 57 36 58 31 59 34 60 37 61 32 62 33 63 35 64
REMARK H PARENT 61 49 52 51 35 65
ROOT
ATOM      1  O   UNL     1     -15.433 -10.080  19.720  1.00  0.00    -0.347 OA
ATOM      2  C   UNL     1     -15.504  -9.423  20.983  1.00  0.00    +0.253 C 
ATOM      3  C   UNL     1     -16.408  -8.003  18.819  1.00  0.00    +0.179 C 
ATOM      4  C   UNL     1     -15.781  -7.148  19.944  1.00  0.00    +0.154 C 
ATOM      5  C   UNL     1     -14.959  -7.997  20.915  1.00  0.00    +0.097 C 
ATOM      6  C   UNL     1     -15.526  -9.235  18.568  1.00  0.00    +0.150 C 
ATOM      7  C   UNL     1     -16.056 -10.098  17.425  1.00  0.00    +0.041 C 
ENDROOT
BRANCH   2   8
ATOM      8  O   UNL     1     -14.697 -10.142  21.915  1.00  0.00    -0.344 OA
BRANCH   8   9
ATOM      9  C   UNL     1     -13.558  -9.430  22.431  1.00  0.00    +0.153 C 
ATOM     10  O   UNL     1     -10.153 -15.693  23.346  1.00  0.00    -0.346 OA
ATOM     11  C   UNL     1      -9.181 -14.887  24.024  1.00  0.00    +0.172 C 
ATOM     12  C   UNL     1      -9.657 -16.327  22.165  1.00  0.00    +0.127 C 
ATOM     13  O   UNL     1      -9.110 -13.573  23.448  1.00  0.00    -0.346 OA
ATOM     14  C   UNL     1      -7.765 -15.493  23.919  1.00  0.00    +0.066 C 
ATOM     15  C   UNL     1      -9.603 -14.793  25.501  1.00  0.00    +0.111 C 
ATOM     16  C   UNL     1      -8.653 -17.436  22.575  1.00  0.00    +0.015 C 
ATOM     17  C   UNL     1     -10.350 -12.856  23.481  1.00  0.00    +0.129 C 
ATOM     18  C   UNL     1      -7.819 -17.009  23.799  1.00  0.00    +0.011 C 
ATOM     19  C   UNL     1     -10.925 -14.048  25.629  1.00  0.00    +0.184 C 
ATOM     20  C   UNL     1     -10.819 -12.708  24.921  1.00  0.00    +0.078 C 
ATOM     21  C   UNL     1     -10.136 -11.482  22.808  1.00  0.00    +0.059 C 
ATOM     22  O   UNL     1     -11.210 -13.718  27.002  1.00  0.00    -0.462 OA
ATOM     23  C   UNL     1     -11.322 -10.558  22.964  1.00  0.00    -0.023 C 
ATOM     24  C   UNL     1     -11.952 -14.598  27.735  1.00  0.00    +0.316 C 
ATOM     25  C   UNL     1     -12.321 -10.298  22.093  1.00  0.00    -0.048 C 
ATOM     26  O   UNL     1     -12.223 -15.737  27.391  1.00  0.00    -0.251 OA
ATOM     27  C   UNL     1     -12.360 -13.909  29.037  1.00  0.00    +0.161 C 
ATOM     28  C   UNL     1     -13.704 -13.149  28.868  1.00  0.00    +0.134 C 
ATOM     29  C   UNL     1     -12.351 -14.861  30.209  1.00  0.00    -0.007 C 
ATOM     30  C   UNL     1     -13.788  -9.057  23.943  1.00  0.00    +0.042 C 
ATOM     31  C   UNL     1     -14.157 -12.566  30.206  1.00  0.00    +0.188 C 
ATOM     32  C   UNL     1     -13.534 -11.843  28.122  1.00  0.00    -0.009 C 
ATOM     33  C   UNL     1     -13.148 -14.698  31.280  1.00  0.00    -0.045 C 
ATOM     34  C   UNL     1     -14.056 -10.270  24.822  1.00  0.00    -0.021 C 
ATOM     35  O   UNL     1     -13.258 -11.450  30.431  1.00  0.00    -0.367 OA
ATOM     36  C   UNL     1     -14.154 -13.577  31.371  1.00  0.00    +0.172 C 
ATOM     37  C   UNL     1     -13.088 -10.825  29.135  1.00  0.00    +0.195 C 
ATOM     38  C   UNL     1     -13.836 -11.635  26.829  1.00  0.00    +0.004 C 
ATOM     39  C   UNL     1     -13.650 -10.401  26.096  1.00  0.00    -0.004 C 
ATOM     40  C   UNL     1      -7.748 -17.817  21.400  1.00  0.00    +0.010 C 
ATOM     41  C   UNL     1     -12.319 -10.847  20.685  1.00  0.00    +0.042 C 
ATOM     42  C   UNL     1     -14.928  -8.053  24.134  1.00  0.00    +0.015 C 
ATOM     43  C   UNL     1     -13.120 -15.663  32.434  1.00  0.00    +0.042 C 
BRANCH  12  44
ATOM     44  C   UNL     1     -10.859 -16.836  21.323  1.00  0.00    +0.015 C 
ATOM     45  C   UNL     1     -12.001 -17.387  22.191  1.00  0.00    +0.010 C 
BRANCH  44  46
ATOM     46  C   UNL     1     -11.450 -15.733  20.410  1.00  0.00    +0.002 C 
ATOM     47  C   UNL     1     -10.515 -14.556  20.169  1.00  0.00    +0.004 C 
ENDBRANCH  44  46
ENDBRANCH  12  44
BRANCH  28  48
ATOM     48  O   UNL     1     -14.727 -13.960  28.307  1.00  0.00    -0.381 OA
ATOM     49  H   UNL     1     -14.319 -14.756  27.923  1.00  0.00    +0.212 HD
ENDBRANCH  28  48
BRANCH  36  50
ATOM     50  O   UNL     1     -13.957 -12.875  32.600  1.00  0.00    -0.386 OA
ATOM     51  H   UNL     1     -13.328 -12.159  32.386  1.00  0.00    +0.211 HD
ENDBRANCH  36  50
ENDBRANCH   8   9
ENDBRANCH   2   8
BRANCH   4  52
ATOM     52  O   UNL     1     -16.857  -6.496  20.650  1.00  0.00    -0.378 OA
ATOM     53  C   UNL     1     -16.646  -5.097  20.819  1.00  0.00    +0.195 C 
ENDBRANCH   4  52
BRANCH   3  54
ATOM     54  O   UNL     1     -16.483  -7.218  17.620  1.00  0.00    -0.344 OA
BRANCH  54  55
ATOM     55  C   UNL     1     -15.336  -6.384  17.427  1.00  0.00    +0.253 C 
ATOM     56  O   UNL     1     -15.725  -5.029  17.642  1.00  0.00    -0.347 OA
ATOM     57  C   UNL     1     -14.828  -6.661  16.013  1.00  0.00    +0.097 C 
ATOM     58  C   UNL     1     -14.979  -4.039  16.935  1.00  0.00    +0.149 C 
ATOM     59  C   UNL     1     -15.443  -5.684  15.024  1.00  0.00    +0.154 C 
ATOM     60  C   UNL     1     -15.072  -4.238  15.406  1.00  0.00    +0.172 C 
ATOM     61  C   UNL     1     -13.541  -3.966  17.446  1.00  0.00    +0.041 C 
BRANCH  59  62
ATOM     62  O   UNL     1     -14.916  -5.944  13.709  1.00  0.00    -0.378 OA
ATOM     63  C   UNL     1     -13.557  -5.546  13.575  1.00  0.00    +0.195 C 
ENDBRANCH  59  62
BRANCH  60  64
ATOM     64  O   UNL     1     -16.095  -3.375  14.868  1.00  0.00    -0.388 OA
ATOM     65  H   UNL     1     -16.662  -3.097  15.606  1.00  0.00    +0.211 HD
ENDBRANCH  60  64
ENDBRANCH  54  55
ENDBRANCH   3  54
TORSDOF 11
ENDMDL
MODEL 2
REMARK VINA RESULT:    -8.964      1.413      2.159
REMARK INTER + INTRA:         -15.579
REMARK INTER:                 -14.260
REMARK INTRA:                  -1.319
REMARK UNBOUND:                -1.636
REMARK SMILES CC[C@H](C)[C@H]1O[C@]2(CC[C@@H]1C)C[C@@H]1C[C@@H](C/C=C(\C)[C@@H](O[C@H]3C[C@H](OC)[C@@H](O[C@H]4C[C@H](OC)[C@@H](O)[C@H](C)O4)[C@H](C)O3)[C@@H](C)/C=C/C=C3\CO[C@@H]4[C@H](O)C(C)=C[C@@H](C(=O)O1)[C@]34O)O2
REMARK SMILES IDX 41 1 22 2 27 3 24 4 23 5 39 6 40 7 21 8 20 9 6 10 7 11 5 12
REMARK SMILES IDX 62 13 8 14 12 15 10 16 15 17 9 18 13 19 14 20 16 21 59 22
REMARK SMILES IDX 17 23 57 24 18 25 58 26 56 27 60 28 55 29 42 30 50 31 47 32
REMARK SMILES IDX 53 33 44 34 49 35 51 36 48 37 46 38 45 39 11 40 19 41 43 42
REMARK SMILES IDX 54 43 3 44 4 45 2 46 1 47 61 48 52 50 25 52 26 53 28 54
REMARK SMILES IDX 29 55 38 56 30 57 36 58 31 59 34 60 37 61 32 62 33 63 35 64
REMARK H PARENT 61 49 52 51 35 65
ROOT
ATOM      1  O   UNL     1     -14.586  -8.062  20.397  1.00  0.00    -0.347 OA
ATOM      2  C   UNL     1     -14.552  -9.485  20.495  1.00  0.00    +0.253 C 
ATOM      3  C   UNL     1     -15.659  -8.447  18.211  1.00  0.00    +0.179 C 
ATOM      4  C   UNL     1     -16.262  -9.793  18.676  1.00  0.00    +0.154 C 
ATOM      5  C   UNL     1     -15.894 -10.113  20.125  1.00  0.00    +0.097 C 
ATOM      6  C   UNL     1     -15.488  -7.523  19.426  1.00  0.00    +0.150 C 
ATOM      7  C   UNL     1     -14.950  -6.149  19.032  1.00  0.00    +0.041 C 
ENDROOT
BRANCH   2   8
ATOM      8  O   UNL     1     -14.276  -9.839  21.850  1.00  0.00    -0.344 OA
BRANCH   8   9
ATOM      9  C   UNL     1     -13.076  -9.274  22.408  1.00  0.00    +0.153 C 
ATOM     10  O   UNL     1     -10.442 -15.907  23.259  1.00  0.00    -0.346 OA
ATOM     11  C   UNL     1      -9.400 -15.233  23.977  1.00  0.00    +0.172 C 
ATOM     12  C   UNL     1      -9.991 -16.570  22.076  1.00  0.00    +0.127 C 
ATOM     13  O   UNL     1      -9.163 -13.924  23.433  1.00  0.00    -0.346 OA
ATOM     14  C   UNL     1      -8.061 -15.996  23.891  1.00  0.00    +0.066 C 
ATOM     15  C   UNL     1      -9.846 -15.120  25.446  1.00  0.00    +0.111 C 
ATOM     16  C   UNL     1      -9.133 -17.796  22.484  1.00  0.00    +0.015 C 
ATOM     17  C   UNL     1     -10.313 -13.070  23.454  1.00  0.00    +0.129 C 
ATOM     18  C   UNL     1      -8.287 -17.493  23.736  1.00  0.00    +0.011 C 
ATOM     19  C   UNL     1     -11.076 -14.229  25.560  1.00  0.00    +0.184 C 
ATOM     20  C   UNL     1     -10.799 -12.897  24.885  1.00  0.00    +0.078 C 
ATOM     21  C   UNL     1      -9.925 -11.716  22.818  1.00  0.00    +0.059 C 
ATOM     22  O   UNL     1     -11.356 -13.896  26.933  1.00  0.00    -0.462 OA
ATOM     23  C   UNL     1     -11.000 -10.664  22.967  1.00  0.00    -0.023 C 
ATOM     24  C   UNL     1     -12.213 -14.698  27.629  1.00  0.00    +0.316 C 
ATOM     25  C   UNL     1     -11.939 -10.273  22.080  1.00  0.00    -0.048 C 
ATOM     26  O   UNL     1     -12.605 -15.791  27.253  1.00  0.00    -0.251 OA
ATOM     27  C   UNL     1     -12.572 -13.993  28.936  1.00  0.00    +0.161 C 
ATOM     28  C   UNL     1     -13.815 -13.078  28.754  1.00  0.00    +0.134 C 
ATOM     29  C   UNL     1     -12.703 -14.962  30.086  1.00  0.00    -0.007 C 
ATOM     30  C   UNL     1     -13.300  -8.907  23.923  1.00  0.00    +0.042 C 
ATOM     31  C   UNL     1     -14.232 -12.474  30.095  1.00  0.00    +0.188 C 
ATOM     32  C   UNL     1     -13.476 -11.786  28.042  1.00  0.00    -0.009 C 
ATOM     33  C   UNL     1     -13.503 -14.730  31.142  1.00  0.00    -0.045 C 
ATOM     34  C   UNL     1     -13.729 -10.098  24.767  1.00  0.00    -0.021 C 
ATOM     35  O   UNL     1     -13.215 -11.474  30.365  1.00  0.00    -0.367 OA
ATOM     36  C   UNL     1     -14.375 -13.501  31.235  1.00  0.00    +0.172 C 
ATOM     37  C   UNL     1     -12.942 -10.847  29.088  1.00  0.00    +0.195 C 
ATOM     38  C   UNL     1     -13.719 -11.519  26.748  1.00  0.00    +0.004 C 
ATOM     39  C   UNL     1     -13.373 -10.301  26.048  1.00  0.00    -0.004 C 
ATOM     40  C   UNL     1      -8.249 -18.256  21.321  1.00  0.00    +0.010 C 
ATOM     41  C   UNL     1     -11.965 -10.791  20.660  1.00  0.00    +0.042 C 
ATOM     42  C   UNL     1     -14.321  -7.781  24.110  1.00  0.00    +0.015 C 
ATOM     43  C   UNL     1     -13.616 -15.714  32.274  1.00  0.00    +0.042 C 
BRANCH  12  44
ATOM     44  C   UNL     1     -11.223 -16.919  21.195  1.00  0.00    +0.015 C 
ATOM     45  C   UNL     1     -12.431 -17.387  22.022  1.00  0.00    +0.010 C 
BRANCH  44  46
ATOM     46  C   UNL     1     -11.682 -15.726  20.321  1.00  0.00    +0.002 C 
ATOM     47  C   UNL     1     -10.607 -14.672  20.091  1.00  0.00    +0.004 C 
ENDBRANCH  44  46
ENDBRANCH  12  44
BRANCH  28  48
ATOM     48  O   UNL     1     -14.910 -13.754  28.151  1.00  0.00    -0.381 OA
ATOM     49  H   UNL     1     -15.470 -14.130  28.854  1.00  0.00    +0.212 HD
ENDBRANCH  28  48
BRANCH  36  50
ATOM     50  O   UNL     1     -14.129 -12.852  32.485  1.00  0.00    -0.386 OA
ATOM     51  H   UNL     1     -13.378 -13.335  32.879  1.00  0.00    +0.211 HD
ENDBRANCH  36  50
ENDBRANCH   8   9
ENDBRANCH   2   8
BRANCH   4  52
ATOM     52  O   UNL     1     -15.759 -10.824  17.801  1.00  0.00    -0.378 OA
ATOM     53  C   UNL     1     -15.877 -12.131  18.353  1.00  0.00    +0.195 C 
ENDBRANCH   4  52
BRANCH   3  54
ATOM     54  O   UNL     1     -16.550  -7.835  17.267  1.00  0.00    -0.344 OA
BRANCH  54  55
ATOM     55  C   UNL     1     -15.939  -7.600  15.995  1.00  0.00    +0.253 C 
ATOM     56  O   UNL     1     -16.028  -6.206  15.705  1.00  0.00    -0.347 OA
ATOM     57  C   UNL     1     -16.672  -8.485  14.989  1.00  0.00    +0.097 C 
ATOM     58  C   UNL     1     -16.068  -5.851  14.323  1.00  0.00    +0.149 C 
ATOM     59  C   UNL     1     -17.819  -7.723  14.344  1.00  0.00    +0.154 C 
ATOM     60  C   UNL     1     -17.282  -6.481  13.606  1.00  0.00    +0.172 C 
ATOM     61  C   UNL     1     -14.737  -6.160  13.639  1.00  0.00    +0.041 C 
BRANCH  59  62
ATOM     62  O   UNL     1     -18.465  -8.569  13.373  1.00  0.00    -0.378 OA
ATOM     63  C   UNL     1     -19.880  -8.577  13.509  1.00  0.00    +0.195 C 
ENDBRANCH  59  62
BRANCH  60  64
ATOM     64  O   UNL     1     -18.357  -5.521  13.543  1.00  0.00    -0.388 OA
ATOM     65  H   UNL     1     -18.243  -4.904  14.285  1.00  0.00    +0.211 HD
ENDBRANCH  60  64
ENDBRANCH  54  55
ENDBRANCH   3  54
TORSDOF 11
ENDMDL
MODEL 3
REMARK VINA RESULT:    -8.616      6.904     13.908
REMARK INTER + INTRA:         -15.037
REMARK INTER:                 -13.236
REMARK INTRA:                  -1.801
REMARK UNBOUND:                -1.636
REMARK SMILES CC[C@H](C)[C@H]1O[C@]2(CC[C@@H]1C)C[C@@H]1C[C@@H](C/C=C(\C)[C@@H](O[C@H]3C[C@H](OC)[C@@H](O[C@H]4C[C@H](OC)[C@@H](O)[C@H](C)O4)[C@H](C)O3)[C@@H](C)/C=C/C=C3\CO[C@@H]4[C@H](O)C(C)=C[C@@H](C(=O)O1)[C@]34O)O2
REMARK SMILES IDX 41 1 22 2 27 3 24 4 23 5 39 6 40 7 21 8 20 9 6 10 7 11 5 12
REMARK SMILES IDX 62 13 8 14 12 15 10 16 15 17 9 18 13 19 14 20 16 21 59 22
REMARK SMILES IDX 17 23 57 24 18 25 58 26 56 27 60 28 55 29 42 30 50 31 47 32
REMARK SMILES IDX 53 33 44 34 49 35 51 36 48 37 46 38 45 39 11 40 19 41 43 42
REMARK SMILES IDX 54 43 3 44 4 45 2 46 1 47 61 48 52 50 25 52 26 53 28 54
REMARK SMILES IDX 29 55 38 56 30 57 36 58 31 59 34 60 37 61 32 62 33 63 35 64
REMARK H PARENT 61 49 52 51 35 65
ROOT
ATOM      1  O   UNL     1     -10.625 -17.022  14.279  1.00  0.00    -0.347 OA
ATOM      2  C   UNL     1     -11.727 -17.240  15.158  1.00  0.00    +0.253 C 
ATOM      3  C   UNL     1     -10.230 -19.444  14.511  1.00  0.00    +0.179 C 
ATOM      4  C   UNL     1     -11.728 -19.726  14.769  1.00  0.00    +0.154 C 
ATOM      5  C   UNL     1     -12.563 -18.446  14.734  1.00  0.00    +0.097 C 
ATOM      6  C   UNL     1     -10.095 -18.187  13.639  1.00  0.00    +0.150 C 
ATOM      7  C   UNL     1      -8.639 -17.882  13.293  1.00  0.00    +0.041 C 
ENDROOT
BRANCH   2   8
ATOM      8  O   UNL     1     -12.577 -16.095  15.112  1.00  0.00    -0.344 OA
BRANCH   8   9
ATOM      9  C   UNL     1     -13.981 -16.355  15.283  1.00  0.00    +0.153 C 
ATOM     10  O   UNL     1     -15.461 -10.207  11.868  1.00  0.00    -0.346 OA
ATOM     11  C   UNL     1     -16.806 -10.483  12.283  1.00  0.00    +0.172 C 
ATOM     12  C   UNL     1     -15.282 -10.207  10.450  1.00  0.00    +0.127 C 
ATOM     13  O   UNL     1     -17.049 -11.898  12.334  1.00  0.00    -0.346 OA
ATOM     14  C   UNL     1     -17.838  -9.893  11.298  1.00  0.00    +0.066 C 
ATOM     15  C   UNL     1     -16.998  -9.863  13.678  1.00  0.00    +0.111 C 
ATOM     16  C   UNL     1     -15.989  -8.961   9.856  1.00  0.00    +0.015 C 
ATOM     17  C   UNL     1     -16.178 -12.604  13.226  1.00  0.00    +0.129 C 
ATOM     18  C   UNL     1     -17.297  -8.649  10.608  1.00  0.00    +0.011 C 
ATOM     19  C   UNL     1     -16.099 -10.554  14.694  1.00  0.00    +0.184 C 
ATOM     20  C   UNL     1     -16.332 -12.054  14.636  1.00  0.00    +0.078 C 
ATOM     21  C   UNL     1     -16.530 -14.107  13.160  1.00  0.00    +0.059 C 
ATOM     22  O   UNL     1     -16.445 -10.178  16.041  1.00  0.00    -0.462 OA
ATOM     23  C   UNL     1     -15.814 -14.928  14.209  1.00  0.00    -0.023 C 
ATOM     24  C   UNL     1     -15.795  -9.117  16.601  1.00  0.00    +0.316 C 
ATOM     25  C   UNL     1     -14.693 -15.670  14.091  1.00  0.00    -0.048 C 
ATOM     26  O   UNL     1     -15.092  -8.329  15.989  1.00  0.00    -0.251 OA
ATOM     27  C   UNL     1     -16.113  -9.097  18.095  1.00  0.00    +0.161 C 
ATOM     28  C   UNL     1     -15.091  -9.951  18.895  1.00  0.00    +0.134 C 
ATOM     29  C   UNL     1     -16.265  -7.691  18.624  1.00  0.00    -0.007 C 
ATOM     30  C   UNL     1     -14.439 -15.943  16.733  1.00  0.00    +0.042 C 
ATOM     31  C   UNL     1     -15.350  -9.825  20.395  1.00  0.00    +0.188 C 
ATOM     32  C   UNL     1     -15.357 -11.435  18.764  1.00  0.00    -0.009 C 
ATOM     33  C   UNL     1     -16.000  -7.365  19.901  1.00  0.00    -0.045 C 
ATOM     34  C   UNL     1     -14.162 -14.481  17.051  1.00  0.00    -0.021 C 
ATOM     35  O   UNL     1     -16.557 -10.600  20.613  1.00  0.00    -0.367 OA
ATOM     36  C   UNL     1     -15.477  -8.372  20.897  1.00  0.00    +0.172 C 
ATOM     37  C   UNL     1     -16.421 -11.771  19.772  1.00  0.00    +0.195 C 
ATOM     38  C   UNL     1     -14.682 -12.285  17.971  1.00  0.00    +0.004 C 
ATOM     39  C   UNL     1     -14.945 -13.699  17.813  1.00  0.00    -0.004 C 
ATOM     40  C   UNL     1     -16.247  -9.141   8.357  1.00  0.00    +0.010 C 
ATOM     41  C   UNL     1     -14.019 -15.898  12.758  1.00  0.00    +0.042 C 
ATOM     42  C   UNL     1     -13.800 -16.811  17.820  1.00  0.00    +0.015 C 
ATOM     43  C   UNL     1     -16.158  -5.955  20.401  1.00  0.00    +0.042 C 
BRANCH  12  44
ATOM     44  C   UNL     1     -13.763 -10.290  10.134  1.00  0.00    +0.015 C 
ATOM     45  C   UNL     1     -13.009  -9.002  10.504  1.00  0.00    +0.010 C 
BRANCH  44  46
ATOM     46  C   UNL     1     -13.071 -11.468  10.863  1.00  0.00    +0.002 C 
ATOM     47  C   UNL     1     -13.626 -12.838  10.500  1.00  0.00    +0.004 C 
ENDBRANCH  44  46
ENDBRANCH  12  44
BRANCH  28  48
ATOM     48  O   UNL     1     -13.742  -9.617  18.594  1.00  0.00    -0.381 OA
ATOM     49  H   UNL     1     -13.207 -10.430  18.613  1.00  0.00    +0.212 HD
ENDBRANCH  28  48
BRANCH  36  50
ATOM     50  O   UNL     1     -16.307  -8.348  22.060  1.00  0.00    -0.386 OA
ATOM     51  H   UNL     1     -15.691  -8.427  22.814  1.00  0.00    +0.211 HD
ENDBRANCH  36  50
ENDBRANCH   8   9
ENDBRANCH   2   8
BRANCH   4  52
ATOM     52  O   UNL     1     -11.839 -20.350  16.065  1.00  0.00    -0.378 OA
ATOM     53  C   UNL     1     -10.690 -20.148  16.882  1.00  0.00    +0.195 C 
ENDBRANCH   4  52
BRANCH   3  54
ATOM     54  O   UNL     1      -9.654 -20.565  13.824  1.00  0.00    -0.344 OA
BRANCH  54  55
ATOM     55  C   UNL     1     -10.518 -21.108  12.821  1.00  0.00    +0.253 C 
ATOM     56  O   UNL     1     -11.078 -22.321  13.320  1.00  0.00    -0.347 OA
ATOM     57  C   UNL     1      -9.665 -21.295  11.567  1.00  0.00    +0.097 C 
ATOM     58  C   UNL     1     -11.433 -23.300  12.344  1.00  0.00    +0.149 C 
ATOM     59  C   UNL     1      -9.080 -22.698  11.523  1.00  0.00    +0.154 C 
ATOM     60  C   UNL     1     -10.211 -23.745  11.510  1.00  0.00    +0.172 C 
ATOM     61  C   UNL     1     -12.604 -22.822  11.488  1.00  0.00    +0.041 C 
BRANCH  59  62
ATOM     62  O   UNL     1      -8.317 -22.856  10.312  1.00  0.00    -0.378 OA
ATOM     63  C   UNL     1      -9.137 -22.947   9.154  1.00  0.00    +0.195 C 
ENDBRANCH  59  62
BRANCH  60  64
ATOM     64  O   UNL     1      -9.672 -24.966  12.057  1.00  0.00    -0.388 OA
ATOM     65  H   UNL     1      -9.768 -24.923  13.022  1.00  0.00    +0.211 HD
ENDBRANCH  60  64
ENDBRANCH  54  55
ENDBRANCH   3  54
TORSDOF 11
ENDMDL
MODEL 4
REMARK VINA RESULT:    -8.340      2.920     11.881
REMARK INTER + INTRA:         -14.607
REMARK INTER:                 -13.300
REMARK INTRA:                  -1.308
REMARK UNBOUND:                -1.636
REMARK SMILES CC[C@H](C)[C@H]1O[C@]2(CC[C@@H]1C)C[C@@H]1C[C@@H](C/C=C(\C)[C@@H](O[C@H]3C[C@H](OC)[C@@H](O[C@H]4C[C@H](OC)[C@@H](O)[C@H](C)O4)[C@H](C)O3)[C@@H](C)/C=C/C=C3\CO[C@@H]4[C@H](O)C(C)=C[C@@H](C(=O)O1)[C@]34O)O2
REMARK SMILES IDX 41 1 22 2 27 3 24 4 23 5 39 6 40 7 21 8 20 9 6 10 7 11 5 12
REMARK SMILES IDX 62 13 8 14 12 15 10 16 15 17 9 18 13 19 14 20 16 21 59 22
REMARK SMILES IDX 17 23 57 24 18 25 58 26 56 27 60 28 55 29 42 30 50 31 47 32
REMARK SMILES IDX 53 33 44 34 49 35 51 36 48 37 46 38 45 39 11 40 19 41 43 42
REMARK SMILES IDX 54 43 3 44 4 45 2 46 1 47 61 48 52 50 25 52 26 53 28 54
REMARK SMILES IDX 29 55 38 56 30 57 36 58 31 59 34 60 37 61 32 62 33 63 35 64
REMARK H PARENT 61 49 52 51 35 65
ROOT
ATOM      1  O   UNL     1     -12.521 -13.963  27.786  1.00  0.00    -0.347 OA
ATOM      2  C   UNL     1     -12.425 -12.635  27.274  1.00  0.00    +0.253 C 
ATOM      3  C   UNL     1     -13.309 -12.885  29.858  1.00  0.00    +0.179 C 
ATOM      4  C   UNL     1     -13.891 -11.681  29.082  1.00  0.00    +0.154 C 
ATOM      5  C   UNL     1     -13.680 -11.817  27.574  1.00  0.00    +0.097 C 
ATOM      6  C   UNL     1     -13.331 -14.127  28.954  1.00  0.00    +0.150 C 
ATOM      7  C   UNL     1     -12.823 -15.372  29.678  1.00  0.00    +0.041 C 
ENDROOT
BRANCH   2   8
ATOM      8  O   UNL     1     -12.291 -12.705  25.855  1.00  0.00    -0.344 OA
BRANCH   8   9
ATOM      9  C   UNL     1     -11.023 -12.272  25.328  1.00  0.00    +0.153 C 
ATOM     10  O   UNL     1     -14.107 -11.312  18.908  1.00  0.00    -0.346 OA
ATOM     11  C   UNL     1     -12.759 -11.101  18.467  1.00  0.00    +0.172 C 
ATOM     12  C   UNL     1     -14.946 -10.164  18.770  1.00  0.00    +0.127 C 
ATOM     13  O   UNL     1     -11.967 -10.499  19.502  1.00  0.00    -0.346 OA
ATOM     14  C   UNL     1     -12.699 -10.148  17.253  1.00  0.00    +0.066 C 
ATOM     15  C   UNL     1     -12.175 -12.473  18.086  1.00  0.00    +0.111 C 
ATOM     16  C   UNL     1     -15.212  -9.915  17.262  1.00  0.00    +0.015 C 
ATOM     17  C   UNL     1     -11.901 -11.272  20.707  1.00  0.00    +0.129 C 
ATOM     18  C   UNL     1     -13.966 -10.239  16.415  1.00  0.00    +0.011 C 
ATOM     19  C   UNL     1     -12.076 -13.367  19.314  1.00  0.00    +0.184 C 
ATOM     20  C   UNL     1     -11.311 -12.642  20.407  1.00  0.00    +0.078 C 
ATOM     21  C   UNL     1     -11.047 -10.498  21.736  1.00  0.00    +0.059 C 
ATOM     22  O   UNL     1     -11.299 -14.549  19.040  1.00  0.00    -0.462 OA
ATOM     23  C   UNL     1     -10.739 -11.307  22.975  1.00  0.00    -0.023 C 
ATOM     24  C   UNL     1     -11.954 -15.669  18.619  1.00  0.00    +0.316 C 
ATOM     25  C   UNL     1     -11.350 -11.289  24.178  1.00  0.00    -0.048 C 
ATOM     26  O   UNL     1     -13.120 -15.699  18.256  1.00  0.00    -0.251 OA
ATOM     27  C   UNL     1     -10.979 -16.844  18.678  1.00  0.00    +0.161 C 
ATOM     28  C   UNL     1     -11.015 -17.530  20.071  1.00  0.00    +0.134 C 
ATOM     29  C   UNL     1     -11.179 -17.804  17.529  1.00  0.00    -0.007 C 
ATOM     30  C   UNL     1     -10.124 -13.518  24.981  1.00  0.00    +0.042 C 
ATOM     31  C   UNL     1     -10.125 -18.772  20.075  1.00  0.00    +0.188 C 
ATOM     32  C   UNL     1     -10.267 -16.737  21.120  1.00  0.00    -0.009 C 
ATOM     33  C   UNL     1     -10.883 -19.113  17.620  1.00  0.00    -0.045 C 
ATOM     34  C   UNL     1     -10.779 -14.466  23.987  1.00  0.00    -0.021 C 
ATOM     35  O   UNL     1      -8.775 -18.241  20.086  1.00  0.00    -0.367 OA
ATOM     36  C   UNL     1     -10.376 -19.736  18.898  1.00  0.00    +0.172 C 
ATOM     37  C   UNL     1      -8.815 -17.103  20.980  1.00  0.00    +0.195 C 
ATOM     38  C   UNL     1     -10.828 -15.950  22.054  1.00  0.00    +0.004 C 
ATOM     39  C   UNL     1     -10.123 -15.163  23.043  1.00  0.00    -0.004 C 
ATOM     40  C   UNL     1     -15.683  -8.479  17.019  1.00  0.00    +0.010 C 
ATOM     41  C   UNL     1     -12.433 -10.289  24.512  1.00  0.00    +0.042 C 
ATOM     42  C   UNL     1      -9.718 -14.315  26.224  1.00  0.00    +0.015 C 
ATOM     43  C   UNL     1     -11.093 -20.048  16.461  1.00  0.00    +0.042 C 
BRANCH  12  44
ATOM     44  C   UNL     1     -16.232 -10.375  19.617  1.00  0.00    +0.015 C 
ATOM     45  C   UNL     1     -16.417 -11.835  20.061  1.00  0.00    +0.010 C 
BRANCH  44  46
ATOM     46  C   UNL     1     -16.255  -9.488  20.886  1.00  0.00    +0.002 C 
ATOM     47  C   UNL     1     -16.828  -8.095  20.664  1.00  0.00    +0.004 C 
ENDBRANCH  44  46
ENDBRANCH  12  44
BRANCH  28  48
ATOM     48  O   UNL     1     -12.334 -17.862  20.485  1.00  0.00    -0.381 OA
ATOM     49  H   UNL     1     -12.948 -17.673  19.754  1.00  0.00    +0.212 HD
ENDBRANCH  28  48
BRANCH  36  50
ATOM     50  O   UNL     1      -9.174 -20.457  18.618  1.00  0.00    -0.386 OA
ATOM     51  H   UNL     1      -8.578 -19.805  18.201  1.00  0.00    +0.211 HD
ENDBRANCH  36  50
ENDBRANCH   8   9
ENDBRANCH   2   8
BRANCH   4  52
ATOM     52  O   UNL     1     -13.236 -10.490  29.566  1.00  0.00    -0.378 OA
ATOM     53  C   UNL     1     -14.148  -9.504  30.039  1.00  0.00    +0.195 C 
ENDBRANCH   4  52
BRANCH   3  54
ATOM     54  O   UNL     1     -14.115 -13.127  31.021  1.00  0.00    -0.344 OA
BRANCH  54  55
ATOM     55  C   UNL     1     -13.337 -13.364  32.198  1.00  0.00    +0.253 C 
ATOM     56  O   UNL     1     -14.226 -13.688  33.266  1.00  0.00    -0.347 OA
ATOM     57  C   UNL     1     -12.519 -12.098  32.442  1.00  0.00    +0.097 C 
ATOM     58  C   UNL     1     -13.779 -13.359  34.580  1.00  0.00    +0.149 C 
ATOM     59  C   UNL     1     -13.260 -11.155  33.377  1.00  0.00    +0.154 C 
ATOM     60  C   UNL     1     -13.517 -11.844  34.731  1.00  0.00    +0.172 C 
ATOM     61  C   UNL     1     -12.584 -14.220  34.985  1.00  0.00    +0.041 C 
BRANCH  59  62
ATOM     62  O   UNL     1     -12.448  -9.991  33.620  1.00  0.00    -0.378 OA
ATOM     63  C   UNL     1     -13.162  -8.776  33.432  1.00  0.00    +0.195 C 
ENDBRANCH  59  62
BRANCH  60  64
ATOM     64  O   UNL     1     -14.670 -11.211  35.323  1.00  0.00    -0.388 OA
ATOM     65  H   UNL     1     -14.427 -10.294  35.530  1.00  0.00    +0.211 HD
ENDBRANCH  60  64
ENDBRANCH  54  55
ENDBRANCH   3  54
TORSDOF 11
ENDMDL
MODEL 5
REMARK VINA RESULT:    -8.158      6.071     14.753
REMARK INTER + INTRA:         -14.324
REMARK INTER:                 -12.576
REMARK INTRA:                  -1.749
REMARK UNBOUND:                -1.636
REMARK SMILES CC[C@H](C)[C@H]1O[C@]2(CC[C@@H]1C)C[C@@H]1C[C@@H](C/C=C(\C)[C@@H](O[C@H]3C[C@H](OC)[C@@H](O[C@H]4C[C@H](OC)[C@@H](O)[C@H](C)O4)[C@H](C)O3)[C@@H](C)/C=C/C=C3\CO[C@@H]4[C@H](O)C(C)=C[C@@H](C(=O)O1)[C@]34O)O2
REMARK SMILES IDX 41 1 22 2 27 3 24 4 23 5 39 6 40 7 21 8 20 9 6 10 7 11 5 12
REMARK SMILES IDX 62 13 8 14 12 15 10 16 15 17 9 18 13 19 14 20 16 21 59 22
REMARK SMILES IDX 17 23 57 24 18 25 58 26 56 27 60 28 55 29 42 30 50 31 47 32
REMARK SMILES IDX 53 33 44 34 49 35 51 36 48 37 46 38 45 39 11 40 19 41 43 42
REMARK SMILES IDX 54 43 3 44 4 45 2 46 1 47 61 48 52 50 25 52 26 53 28 54
REMARK SMILES IDX 29 55 38 56 30 57 36 58 31 59 34 60 37 61 32 62 33 63 35 64
REMARK H PARENT 61 49 52 51 35 65
ROOT
ATOM      1  O   UNL     1     -15.517 -10.503  18.583  1.00  0.00    -0.347 OA
ATOM      2  C   UNL     1     -15.398  -9.478  17.599  1.00  0.00    +0.253 C 
ATOM      3  C   UNL     1     -15.447  -8.656  20.214  1.00  0.00    +0.179 C 
ATOM      4  C   UNL     1     -16.066  -7.661  19.206  1.00  0.00    +0.154 C 
ATOM      5  C   UNL     1     -16.363  -8.323  17.860  1.00  0.00    +0.097 C 
ATOM      6  C   UNL     1     -15.931 -10.076  19.885  1.00  0.00    +0.150 C 
ATOM      7  C   UNL     1     -15.404 -11.108  20.880  1.00  0.00    +0.041 C 
ENDROOT
BRANCH   2   8
ATOM      8  O   UNL     1     -15.731 -10.030  16.326  1.00  0.00    -0.344 OA
BRANCH   8   9
ATOM      9  C   UNL     1     -14.642 -10.639  15.608  1.00  0.00    +0.153 C 
ATOM     10  O   UNL     1     -17.224  -7.876   9.497  1.00  0.00    -0.346 OA
ATOM     11  C   UNL     1     -16.220  -8.695   8.885  1.00  0.00    +0.172 C 
ATOM     12  C   UNL     1     -17.026  -6.474   9.298  1.00  0.00    +0.127 C 
ATOM     13  O   UNL     1     -15.069  -8.820   9.736  1.00  0.00    -0.346 OA
ATOM     14  C   UNL     1     -15.723  -8.090   7.555  1.00  0.00    +0.066 C 
ATOM     15  C   UNL     1     -16.842 -10.080   8.632  1.00  0.00    +0.111 C 
ATOM     16  C   UNL     1     -17.299  -6.136   7.809  1.00  0.00    +0.015 C 
ATOM     17  C   UNL     1     -15.355  -9.390  11.019  1.00  0.00    +0.129 C 
ATOM     18  C   UNL     1     -16.810  -7.265   6.882  1.00  0.00    +0.011 C 
ATOM     19  C   UNL     1     -17.185 -10.757   9.951  1.00  0.00    +0.184 C 
ATOM     20  C   UNL     1     -15.957 -10.776  10.844  1.00  0.00    +0.078 C 
ATOM     21  C   UNL     1     -14.042  -9.438  11.833  1.00  0.00    +0.059 C 
ATOM     22  O   UNL     1     -17.521 -12.144   9.757  1.00  0.00    -0.462 OA
ATOM     23  C   UNL     1     -14.179 -10.204  13.129  1.00  0.00    -0.023 C 
ATOM     24  C   UNL     1     -18.833 -12.470   9.567  1.00  0.00    +0.316 C 
ATOM     25  C   UNL     1     -14.380  -9.736  14.379  1.00  0.00    -0.048 C 
ATOM     26  O   UNL     1     -19.724 -11.666   9.341  1.00  0.00    -0.251 OA
ATOM     27  C   UNL     1     -18.969 -13.988   9.676  1.00  0.00    +0.161 C 
ATOM     28  C   UNL     1     -19.232 -14.420  11.145  1.00  0.00    +0.134 C 
ATOM     29  C   UNL     1     -19.980 -14.538   8.698  1.00  0.00    -0.007 C 
ATOM     30  C   UNL     1     -14.952 -12.159  15.336  1.00  0.00    +0.042 C 
ATOM     31  C   UNL     1     -19.484 -15.925  11.219  1.00  0.00    +0.188 C 
ATOM     32  C   UNL     1     -17.975 -14.379  11.987  1.00  0.00    -0.009 C 
ATOM     33  C   UNL     1     -20.675 -15.665   8.932  1.00  0.00    -0.045 C 
ATOM     34  C   UNL     1     -16.242 -12.374  14.559  1.00  0.00    -0.021 C 
ATOM     35  O   UNL     1     -18.175 -16.515  11.009  1.00  0.00    -0.367 OA
ATOM     36  C   UNL     1     -20.538 -16.442  10.219  1.00  0.00    +0.172 C 
ATOM     37  C   UNL     1     -17.250 -15.673  11.739  1.00  0.00    +0.195 C 
ATOM     38  C   UNL     1     -17.651 -13.413  12.863  1.00  0.00    +0.004 C 
ATOM     39  C   UNL     1     -16.440 -13.346  13.652  1.00  0.00    -0.004 C 
ATOM     40  C   UNL     1     -16.662  -4.797   7.427  1.00  0.00    +0.010 C 
ATOM     41  C   UNL     1     -14.373  -8.257  14.691  1.00  0.00    +0.042 C 
ATOM     42  C   UNL     1     -15.011 -12.986  16.623  1.00  0.00    +0.015 C 
ATOM     43  C   UNL     1     -21.677 -16.190   7.941  1.00  0.00    +0.042 C 
BRANCH  12  44
ATOM     44  C   UNL     1     -17.917  -5.692  10.303  1.00  0.00    +0.015 C 
ATOM     45  C   UNL     1     -19.391  -6.124  10.250  1.00  0.00    +0.010 C 
BRANCH  44  46
ATOM     46  C   UNL     1     -17.432  -5.845  11.765  1.00  0.00    +0.002 C 
ATOM     47  C   UNL     1     -18.282  -6.785  12.609  1.00  0.00    +0.004 C 
ENDBRANCH  44  46
ENDBRANCH  12  44
BRANCH  28  48
ATOM     48  O   UNL     1     -20.306 -13.706  11.743  1.00  0.00    -0.381 OA
ATOM     49  H   UNL     1     -21.009 -13.587  11.081  1.00  0.00    +0.212 HD
ENDBRANCH  28  48
BRANCH  36  50
ATOM     50  O   UNL     1     -20.259 -17.809   9.908  1.00  0.00    -0.386 OA
ATOM     51  H   UNL     1     -20.023 -18.221  10.762  1.00  0.00    +0.211 HD
ENDBRANCH  36  50
ENDBRANCH   8   9
ENDBRANCH   2   8
BRANCH   4  52
ATOM     52  O   UNL     1     -15.128  -6.579  19.026  1.00  0.00    -0.378 OA
ATOM     53  C   UNL     1     -15.279  -5.911  17.777  1.00  0.00    +0.195 C 
ENDBRANCH   4  52
BRANCH   3  54
ATOM     54  O   UNL     1     -15.870  -8.304  21.540  1.00  0.00    -0.344 OA
BRANCH  54  55
ATOM     55  C   UNL     1     -14.812  -7.762  22.337  1.00  0.00    +0.253 C 
ATOM     56  O   UNL     1     -13.575  -8.014  21.673  1.00  0.00    -0.347 OA
ATOM     57  C   UNL     1     -14.919  -8.423  23.710  1.00  0.00    +0.097 C 
ATOM     58  C   UNL     1     -12.424  -8.135  22.508  1.00  0.00    +0.149 C 
ATOM     59  C   UNL     1     -14.045  -9.666  23.773  1.00  0.00    +0.154 C 
ATOM     60  C   UNL     1     -12.572  -9.293  23.519  1.00  0.00    +0.172 C 
ATOM     61  C   UNL     1     -12.082  -6.800  23.167  1.00  0.00    +0.041 C 
BRANCH  59  62
ATOM     62  O   UNL     1     -14.135 -10.243  25.090  1.00  0.00    -0.378 OA
ATOM     63  C   UNL     1     -13.371  -9.530  26.054  1.00  0.00    +0.195 C 
ENDBRANCH  59  62
BRANCH  60  64
ATOM     64  O   UNL     1     -11.913 -10.469  23.005  1.00  0.00    -0.388 OA
ATOM     65  H   UNL     1     -12.261 -11.235  23.491  1.00  0.00    +0.211 HD
ENDBRANCH  60  64
ENDBRANCH  54  55
ENDBRANCH   3  54
TORSDOF 11
ENDMDL
MODEL 6
REMARK VINA RESULT:    -8.041      4.649     14.027
REMARK INTER + INTRA:         -14.142
REMARK INTER:                 -12.756
REMARK INTRA:                  -1.386
REMARK UNBOUND:                -1.636
REMARK SMILES CC[C@H](C)[C@H]1O[C@]2(CC[C@@H]1C)C[C@@H]1C[C@@H](C/C=C(\C)[C@@H](O[C@H]3C[C@H](OC)[C@@H](O[C@H]4C[C@H](OC)[C@@H](O)[C@H](C)O4)[C@H](C)O3)[C@@H](C)/C=C/C=C3\CO[C@@H]4[C@H](O)C(C)=C[C@@H](C(=O)O1)[C@]34O)O2
REMARK SMILES IDX 41 1 22 2 27 3 24 4 23 5 39 6 40 7 21 8 20 9 6 10 7 11 5 12
REMARK SMILES IDX 62 13 8 14 12 15 10 16 15 17 9 18 13 19 14 20 16 21 59 22
REMARK SMILES IDX 17 23 57 24 18 25 58 26 56 27 60 28 55 29 42 30 50 31 47 32
REMARK SMILES IDX 53 33 44 34 49 35 51 36 48 37 46 38 45 39 11 40 19 41 43 42
REMARK SMILES IDX 54 43 3 44 4 45 2 46 1 47 61 48 52 50 25 52 26 53 28 54
REMARK SMILES IDX 29 55 38 56 30 57 36 58 31 59 34 60 37 61 32 62 33 63 35 64
REMARK H PARENT 61 49 52 51 35 65
ROOT
ATOM      1  O   UNL     1     -12.541 -16.661  21.554  1.00  0.00    -0.347 OA
ATOM      2  C   UNL     1     -12.104 -17.115  20.274  1.00  0.00    +0.253 C 
ATOM      3  C   UNL     1     -10.815 -18.175  22.450  1.00  0.00    +0.179 C 
ATOM      4  C   UNL     1      -9.944 -18.032  21.181  1.00  0.00    +0.154 C 
ATOM      5  C   UNL     1     -10.581 -17.096  20.154  1.00  0.00    +0.097 C 
ATOM      6  C   UNL     1     -11.643 -16.896  22.642  1.00  0.00    +0.150 C 
ATOM      7  C   UNL     1     -12.487 -16.944  23.914  1.00  0.00    +0.041 C 
ENDROOT
BRANCH   2   8
ATOM      8  O   UNL     1     -12.620 -16.232  19.279  1.00  0.00    -0.344 OA
BRANCH   8   9
ATOM      9  C   UNL     1     -11.710 -15.889  18.219  1.00  0.00    +0.153 C 
ATOM     10  O   UNL     1     -15.231  -9.691  17.304  1.00  0.00    -0.346 OA
ATOM     11  C   UNL     1     -14.395  -9.567  16.146  1.00  0.00    +0.172 C 
ATOM     12  C   UNL     1     -15.008  -8.680  18.289  1.00  0.00    +0.127 C 
ATOM     13  O   UNL     1     -13.115 -10.181  16.368  1.00  0.00    -0.346 OA
ATOM     14  C   UNL     1     -14.120  -8.088  15.797  1.00  0.00    +0.066 C 
ATOM     15  C   UNL     1     -15.115 -10.258  14.976  1.00  0.00    +0.111 C 
ATOM     16  C   UNL     1     -15.531  -7.325  17.745  1.00  0.00    +0.015 C 
ATOM     17  C   UNL     1     -13.188 -11.576  16.689  1.00  0.00    +0.129 C 
ATOM     18  C   UNL     1     -15.272  -7.195  16.232  1.00  0.00    +0.011 C 
ATOM     19  C   UNL     1     -15.244 -11.752  15.239  1.00  0.00    +0.184 C 
ATOM     20  C   UNL     1     -13.875 -12.328  15.560  1.00  0.00    +0.078 C 
ATOM     21  C   UNL     1     -11.753 -12.096  16.929  1.00  0.00    +0.059 C 
ATOM     22  O   UNL     1     -15.673 -12.457  14.058  1.00  0.00    -0.462 OA
ATOM     23  C   UNL     1     -11.687 -13.599  17.077  1.00  0.00    -0.023 C 
ATOM     24  C   UNL     1     -17.011 -12.655  13.877  1.00  0.00    +0.316 C 
ATOM     25  C   UNL     1     -11.635 -14.343  18.202  1.00  0.00    -0.048 C 
ATOM     26  O   UNL     1     -17.891 -12.108  14.523  1.00  0.00    -0.251 OA
ATOM     27  C   UNL     1     -17.196 -13.656  12.737  1.00  0.00    +0.161 C 
ATOM     28  C   UNL     1     -17.206 -15.115  13.271  1.00  0.00    +0.134 C 
ATOM     29  C   UNL     1     -18.392 -13.322  11.877  1.00  0.00    -0.007 C 
ATOM     30  C   UNL     1     -12.134 -16.608  16.883  1.00  0.00    +0.042 C 
ATOM     31  C   UNL     1     -17.510 -16.094  12.138  1.00  0.00    +0.188 C 
ATOM     32  C   UNL     1     -15.817 -15.612  13.607  1.00  0.00    -0.009 C 
ATOM     33  C   UNL     1     -19.084 -14.259  11.205  1.00  0.00    -0.045 C 
ATOM     34  C   UNL     1     -13.553 -16.269  16.449  1.00  0.00    -0.021 C 
ATOM     35  O   UNL     1     -16.290 -16.118  11.353  1.00  0.00    -0.367 OA
ATOM     36  C   UNL     1     -18.751 -15.728  11.300  1.00  0.00    +0.172 C 
ATOM     37  C   UNL     1     -15.209 -16.092  12.317  1.00  0.00    +0.195 C 
ATOM     38  C   UNL     1     -15.294 -15.700  14.842  1.00  0.00    +0.004 C 
ATOM     39  C   UNL     1     -13.958 -16.144  15.174  1.00  0.00    -0.004 C 
ATOM     40  C   UNL     1     -14.913  -6.153  18.511  1.00  0.00    +0.010 C 
ATOM     41  C   UNL     1     -11.502 -13.717  19.571  1.00  0.00    +0.042 C 
ATOM     42  C   UNL     1     -11.997 -18.130  16.965  1.00  0.00    +0.015 C 
ATOM     43  C   UNL     1     -20.273 -13.899  10.357  1.00  0.00    +0.042 C 
BRANCH  12  44
ATOM     44  C   UNL     1     -15.663  -9.126  19.626  1.00  0.00    +0.015 C 
ATOM     45  C   UNL     1     -16.687  -8.108  20.153  1.00  0.00    +0.010 C 
BRANCH  44  46
ATOM     46  C   UNL     1     -16.378 -10.495  19.506  1.00  0.00    +0.002 C 
ATOM     47  C   UNL     1     -15.567 -11.669  20.036  1.00  0.00    +0.004 C 
ENDBRANCH  44  46
ENDBRANCH  12  44
BRANCH  28  48
ATOM     48  O   UNL     1     -18.119 -15.299  14.345  1.00  0.00    -0.381 OA
ATOM     49  H   UNL     1     -17.651 -15.137  15.183  1.00  0.00    +0.212 HD
ENDBRANCH  28  48
BRANCH  36  50
ATOM     50  O   UNL     1     -18.597 -16.254   9.979  1.00  0.00    -0.386 OA
ATOM     51  H   UNL     1     -19.428 -16.031   9.518  1.00  0.00    +0.211 HD
ENDBRANCH  36  50
ENDBRANCH   8   9
ENDBRANCH   2   8
BRANCH   4  52
ATOM     52  O   UNL     1      -9.778 -19.348  20.613  1.00  0.00    -0.378 OA
ATOM     53  C   UNL     1      -9.262 -19.321  19.285  1.00  0.00    +0.195 C 
ENDBRANCH   4  52
BRANCH   3  54
ATOM     54  O   UNL     1      -9.960 -18.366  23.587  1.00  0.00    -0.344 OA
BRANCH  54  55
ATOM     55  C   UNL     1      -8.695 -17.712  23.450  1.00  0.00    +0.253 C 
ATOM     56  O   UNL     1      -7.666 -18.685  23.615  1.00  0.00    -0.347 OA
ATOM     57  C   UNL     1      -8.664 -16.600  24.497  1.00  0.00    +0.097 C 
ATOM     58  C   UNL     1      -6.422 -18.207  24.124  1.00  0.00    +0.149 C 
ATOM     59  C   UNL     1      -8.029 -17.098  25.785  1.00  0.00    +0.154 C 
ATOM     60  C   UNL     1      -6.585 -17.565  25.520  1.00  0.00    +0.172 C 
ATOM     61  C   UNL     1      -5.733 -17.289  23.116  1.00  0.00    +0.041 C 
BRANCH  59  62
ATOM     62  O   UNL     1      -7.977 -16.018  26.738  1.00  0.00    -0.378 OA
ATOM     63  C   UNL     1      -7.910 -14.742  26.115  1.00  0.00    +0.195 C 
ENDBRANCH  59  62
BRANCH  60  64
ATOM     64  O   UNL     1      -6.251 -18.531  26.538  1.00  0.00    -0.388 OA
ATOM     65  H   UNL     1      -6.349 -18.094  27.399  1.00  0.00    +0.211 HD
ENDBRANCH  60  64
ENDBRANCH  54  55
ENDBRANCH   3  54
TORSDOF 11
ENDMDL
MODEL 7
REMARK VINA RESULT:    -8.026      3.017     12.345
REMARK INTER + INTRA:         -14.119
REMARK INTER:                 -12.099
REMARK INTRA:                  -2.020
REMARK UNBOUND:                -1.636
REMARK SMILES CC[C@H](C)[C@H]1O[C@]2(CC[C@@H]1C)C[C@@H]1C[C@@H](C/C=C(\C)[C@@H](O[C@H]3C[C@H](OC)[C@@H](O[C@H]4C[C@H](OC)[C@@H](O)[C@H](C)O4)[C@H](C)O3)[C@@H](C)/C=C/C=C3\CO[C@@H]4[C@H](O)C(C)=C[C@@H](C(=O)O1)[C@]34O)O2
REMARK SMILES IDX 41 1 22 2 27 3 24 4 23 5 39 6 40 7 21 8 20 9 6 10 7 11 5 12
REMARK SMILES IDX 62 13 8 14 12 15 10 16 15 17 9 18 13 19 14 20 16 21 59 22
REMARK SMILES IDX 17 23 57 24 18 25 58 26 56 27 60 28 55 29 42 30 50 31 47 32
REMARK SMILES IDX 53 33 44 34 49 35 51 36 48 37 46 38 45 39 11 40 19 41 43 42
REMARK SMILES IDX 54 43 3 44 4 45 2 46 1 47 61 48 52 50 25 52 26 53 28 54
REMARK SMILES IDX 29 55 38 56 30 57 36 58 31 59 34 60 37 61 32 62 33 63 35 64
REMARK H PARENT 61 49 52 51 35 65
ROOT
ATOM      1  O   UNL     1     -12.129 -15.025  28.032  1.00  0.00    -0.347 OA
ATOM      2  C   UNL     1     -12.096 -13.731  27.433  1.00  0.00    +0.253 C 
ATOM      3  C   UNL     1     -13.142 -13.876  29.963  1.00  0.00    +0.179 C 
ATOM      4  C   UNL     1     -13.756 -12.778  29.065  1.00  0.00    +0.154 C 
ATOM      5  C   UNL     1     -13.427 -12.998  27.588  1.00  0.00    +0.097 C 
ATOM      6  C   UNL     1     -13.006 -15.174  29.153  1.00  0.00    +0.150 C 
ATOM      7  C   UNL     1     -12.459 -16.323  29.998  1.00  0.00    +0.041 C 
ENDROOT
BRANCH   2   8
ATOM      8  O   UNL     1     -11.856 -13.886  26.035  1.00  0.00    -0.344 OA
BRANCH   8   9
ATOM      9  C   UNL     1     -10.527 -13.556  25.592  1.00  0.00    +0.153 C 
ATOM     10  O   UNL     1     -13.249 -11.343  19.319  1.00  0.00    -0.346 OA
ATOM     11  C   UNL     1     -11.872 -11.253  18.931  1.00  0.00    +0.172 C 
ATOM     12  C   UNL     1     -13.930 -10.086  19.328  1.00  0.00    +0.127 C 
ATOM     13  O   UNL     1     -11.043 -10.905  20.052  1.00  0.00    -0.346 OA
ATOM     14  C   UNL     1     -11.650 -10.161  17.862  1.00  0.00    +0.066 C 
ATOM     15  C   UNL     1     -11.455 -12.625  18.374  1.00  0.00    +0.111 C 
ATOM     16  C   UNL     1     -14.111  -9.604  17.865  1.00  0.00    +0.015 C 
ATOM     17  C   UNL     1     -11.116 -11.836  21.140  1.00  0.00    +0.129 C 
ATOM     18  C   UNL     1     -12.890  -9.971  17.001  1.00  0.00    +0.011 C 
ATOM     19  C   UNL     1     -11.512 -13.683  19.468  1.00  0.00    +0.184 C 
ATOM     20  C   UNL     1     -10.697 -13.218  20.662  1.00  0.00    +0.078 C 
ATOM     21  C   UNL     1     -10.205 -11.326  22.278  1.00  0.00    +0.059 C 
ATOM     22  O   UNL     1     -10.884 -14.908  19.046  1.00  0.00    -0.462 OA
ATOM     23  C   UNL     1     -10.044 -12.328  23.399  1.00  0.00    -0.023 C 
ATOM     24  C   UNL     1     -11.663 -15.865  18.465  1.00  0.00    +0.316 C 
ATOM     25  C   UNL     1     -10.688 -12.392  24.584  1.00  0.00    -0.048 C 
ATOM     26  O   UNL     1     -12.810 -15.693  18.083  1.00  0.00    -0.251 OA
ATOM     27  C   UNL     1     -10.848 -17.155  18.375  1.00  0.00    +0.161 C 
ATOM     28  C   UNL     1     -11.018 -18.012  19.660  1.00  0.00    +0.134 C 
ATOM     29  C   UNL     1     -11.131 -17.917  17.103  1.00  0.00    -0.007 C 
ATOM     30  C   UNL     1      -9.784 -14.851  25.089  1.00  0.00    +0.042 C 
ATOM     31  C   UNL     1     -10.294 -19.350  19.506  1.00  0.00    +0.188 C 
ATOM     32  C   UNL     1     -10.209 -17.473  20.819  1.00  0.00    -0.009 C 
ATOM     33  C   UNL     1     -11.008 -19.253  17.016  1.00  0.00    -0.045 C 
ATOM     34  C   UNL     1     -10.521 -15.562  23.964  1.00  0.00    -0.021 C 
ATOM     35  O   UNL     1      -8.888 -19.007  19.610  1.00  0.00    -0.367 OA
ATOM     36  C   UNL     1     -10.628 -20.104  18.204  1.00  0.00    +0.172 C 
ATOM     37  C   UNL     1      -8.812 -18.004  20.653  1.00  0.00    +0.195 C 
ATOM     38  C   UNL     1     -10.696 -16.753  21.845  1.00  0.00    +0.004 C 
ATOM     39  C   UNL     1      -9.929 -16.205  22.943  1.00  0.00    -0.004 C 
ATOM     40  C   UNL     1     -14.386  -8.098  17.815  1.00  0.00    +0.010 C 
ATOM     41  C   UNL     1     -11.644 -11.313  25.035  1.00  0.00    +0.042 C 
ATOM     42  C   UNL     1      -9.524 -15.854  26.216  1.00  0.00    +0.015 C 
ATOM     43  C   UNL     1     -11.298 -19.988  15.736  1.00  0.00    +0.042 C 
BRANCH  12  44
ATOM     44  C   UNL     1     -15.259 -10.239  20.118  1.00  0.00    +0.015 C 
ATOM     45  C   UNL     1     -16.290 -11.110  19.383  1.00  0.00    +0.010 C 
BRANCH  44  46
ATOM     46  C   UNL     1     -15.043 -10.849  21.525  1.00  0.00    +0.002 C 
ATOM     47  C   UNL     1     -14.123 -10.034  22.423  1.00  0.00    +0.004 C 
ENDBRANCH  44  46
ENDBRANCH  12  44
BRANCH  28  48
ATOM     48  O   UNL     1     -12.381 -18.221  20.004  1.00  0.00    -0.381 OA
ATOM     49  H   UNL     1     -12.863 -17.383  19.893  1.00  0.00    +0.212 HD
ENDBRANCH  28  48
BRANCH  36  50
ATOM     50  O   UNL     1      -9.519 -20.933  17.845  1.00  0.00    -0.386 OA
ATOM     51  H   UNL     1      -8.777 -20.315  17.697  1.00  0.00    +0.211 HD
ENDBRANCH  36  50
ENDBRANCH   8   9
ENDBRANCH   2   8
BRANCH   4  52
ATOM     52  O   UNL     1     -13.228 -11.508  29.503  1.00  0.00    -0.378 OA
ATOM     53  C   UNL     1     -14.108 -10.419  29.243  1.00  0.00    +0.195 C 
ENDBRANCH   4  52
BRANCH   3  54
ATOM     54  O   UNL     1     -14.009 -14.103  31.085  1.00  0.00    -0.344 OA
BRANCH  54  55
ATOM     55  C   UNL     1     -13.471 -13.605  32.314  1.00  0.00    +0.253 C 
ATOM     56  O   UNL     1     -12.073 -13.386  32.137  1.00  0.00    -0.347 OA
ATOM     57  C   UNL     1     -13.799 -14.644  33.385  1.00  0.00    +0.097 C 
ATOM     58  C   UNL     1     -11.263 -13.499  33.307  1.00  0.00    +0.149 C 
ATOM     59  C   UNL     1     -12.658 -15.637  33.533  1.00  0.00    +0.154 C 
ATOM     60  C   UNL     1     -11.364 -14.905  33.938  1.00  0.00    +0.172 C 
ATOM     61  C   UNL     1     -11.565 -12.372  34.293  1.00  0.00    +0.041 C 
BRANCH  59  62
ATOM     62  O   UNL     1     -12.979 -16.578  34.575  1.00  0.00    -0.378 OA
ATOM     63  C   UNL     1     -13.290 -15.944  35.809  1.00  0.00    +0.195 C 
ENDBRANCH  59  62
BRANCH  60  64
ATOM     64  O   UNL     1     -10.255 -15.714  33.495  1.00  0.00    -0.388 OA
ATOM     65  H   UNL     1     -10.035 -16.328  34.214  1.00  0.00    +0.211 HD
ENDBRANCH  60  64
ENDBRANCH  54  55
ENDBRANCH   3  54
TORSDOF 11
ENDMDL
MODEL 8
REMARK VINA RESULT:    -7.914      6.808     10.479
REMARK INTER + INTRA:         -13.946
REMARK INTER:                 -13.300
REMARK INTRA:                  -0.646
REMARK UNBOUND:                -1.636
REMARK SMILES CC[C@H](C)[C@H]1O[C@]2(CC[C@@H]1C)C[C@@H]1C[C@@H](C/C=C(\C)[C@@H](O[C@H]3C[C@H](OC)[C@@H](O[C@H]4C[C@H](OC)[C@@H](O)[C@H](C)O4)[C@H](C)O3)[C@@H](C)/C=C/C=C3\CO[C@@H]4[C@H](O)C(C)=C[C@@H](C(=O)O1)[C@]34O)O2
REMARK SMILES IDX 41 1 22 2 27 3 24 4 23 5 39 6 40 7 21 8 20 9 6 10 7 11 5 12
REMARK SMILES IDX 62 13 8 14 12 15 10 16 15 17 9 18 13 19 14 20 16 21 59 22
REMARK SMILES IDX 17 23 57 24 18 25 58 26 56 27 60 28 55 29 42 30 50 31 47 32
REMARK SMILES IDX 53 33 44 34 49 35 51 36 48 37 46 38 45 39 11 40 19 41 43 42
REMARK SMILES IDX 54 43 3 44 4 45 2 46 1 47 61 48 52 50 25 52 26 53 28 54
REMARK SMILES IDX 29 55 38 56 30 57 36 58 31 59 34 60 37 61 32 62 33 63 35 64
REMARK H PARENT 61 49 52 51 35 65
ROOT
ATOM      1  O   UNL     1     -17.108 -15.812  11.820  1.00  0.00    -0.347 OA
ATOM      2  C   UNL     1     -17.662 -15.907  13.131  1.00  0.00    +0.253 C 
ATOM      3  C   UNL     1     -19.321 -16.584  11.055  1.00  0.00    +0.179 C 
ATOM      4  C   UNL     1     -20.029 -15.962  12.281  1.00  0.00    +0.154 C 
ATOM      5  C   UNL     1     -19.043 -15.259  13.214  1.00  0.00    +0.097 C 
ATOM      6  C   UNL     1     -18.050 -15.780  10.743  1.00  0.00    +0.150 C 
ATOM      7  C   UNL     1     -17.329 -16.305   9.503  1.00  0.00    +0.041 C 
ENDROOT
BRANCH   2   8
ATOM      8  O   UNL     1     -16.808 -15.207  14.035  1.00  0.00    -0.344 OA
BRANCH   8   9
ATOM      9  C   UNL     1     -15.828 -14.347  13.425  1.00  0.00    +0.153 C 
ATOM     10  O   UNL     1     -11.554 -15.310  19.122  1.00  0.00    -0.346 OA
ATOM     11  C   UNL     1     -10.763 -14.286  18.505  1.00  0.00    +0.172 C 
ATOM     12  C   UNL     1     -10.892 -16.574  19.216  1.00  0.00    +0.127 C 
ATOM     13  O   UNL     1     -10.861 -14.352  17.074  1.00  0.00    -0.346 OA
ATOM     14  C   UNL     1      -9.265 -14.436  18.852  1.00  0.00    +0.066 C 
ATOM     15  C   UNL     1     -11.285 -12.929  19.008  1.00  0.00    +0.111 C 
ATOM     16  C   UNL     1      -9.755 -16.468  20.266  1.00  0.00    +0.015 C 
ATOM     17  C   UNL     1     -12.198 -14.210  16.577  1.00  0.00    +0.129 C 
ATOM     18  C   UNL     1      -9.076 -15.086  20.215  1.00  0.00    +0.011 C 
ATOM     19  C   UNL     1     -12.711 -12.699  18.530  1.00  0.00    +0.184 C 
ATOM     20  C   UNL     1     -12.772 -12.874  17.022  1.00  0.00    +0.078 C 
ATOM     21  C   UNL     1     -12.159 -14.328  15.037  1.00  0.00    +0.059 C 
ATOM     22  O   UNL     1     -13.129 -11.340  18.761  1.00  0.00    -0.462 OA
ATOM     23  C   UNL     1     -13.482 -13.994  14.386  1.00  0.00    -0.023 C 
ATOM     24  C   UNL     1     -13.769 -11.052  19.931  1.00  0.00    +0.316 C 
ATOM     25  C   UNL     1     -14.453 -14.825  13.951  1.00  0.00    -0.048 C 
ATOM     26  O   UNL     1     -13.838 -11.803  20.890  1.00  0.00    -0.251 OA
ATOM     27  C   UNL     1     -14.359  -9.647  19.819  1.00  0.00    +0.161 C 
ATOM     28  C   UNL     1     -15.792  -9.689  19.221  1.00  0.00    +0.134 C 
ATOM     29  C   UNL     1     -14.275  -8.891  21.124  1.00  0.00    -0.007 C 
ATOM     30  C   UNL     1     -16.207 -12.837  13.660  1.00  0.00    +0.042 C 
ATOM     31  C   UNL     1     -16.412  -8.292  19.227  1.00  0.00    +0.188 C 
ATOM     32  C   UNL     1     -15.781  -9.904  17.723  1.00  0.00    -0.009 C 
ATOM     33  C   UNL     1     -15.152  -7.929  21.462  1.00  0.00    -0.045 C 
ATOM     34  C   UNL     1     -16.337 -12.478  15.133  1.00  0.00    -0.021 C 
ATOM     35  O   UNL     1     -15.713  -7.589  18.167  1.00  0.00    -0.367 OA
ATOM     36  C   UNL     1     -16.324  -7.565  20.583  1.00  0.00    +0.172 C 
ATOM     37  C   UNL     1     -15.563  -8.554  17.097  1.00  0.00    +0.195 C 
ATOM     38  C   UNL     1     -16.032 -11.066  17.097  1.00  0.00    +0.004 C 
ATOM     39  C   UNL     1     -15.995 -11.293  15.668  1.00  0.00    -0.004 C 
ATOM     40  C   UNL     1      -8.731 -17.591  20.079  1.00  0.00    +0.010 C 
ATOM     41  C   UNL     1     -14.278 -16.326  13.946  1.00  0.00    +0.042 C 
ATOM     42  C   UNL     1     -17.499 -12.437  12.942  1.00  0.00    +0.015 C 
ATOM     43  C   UNL     1     -15.045  -7.193  22.769  1.00  0.00    +0.042 C 
BRANCH  12  44
ATOM     44  C   UNL     1     -11.946 -17.672  19.527  1.00  0.00    +0.015 C 
ATOM     45  C   UNL     1     -13.310 -17.089  19.929  1.00  0.00    +0.010 C 
BRANCH  44  46
ATOM     46  C   UNL     1     -12.176 -18.627  18.329  1.00  0.00    +0.002 C 
ATOM     47  C   UNL     1     -12.133 -17.942  16.970  1.00  0.00    +0.004 C 
ENDBRANCH  44  46
ENDBRANCH  12  44
BRANCH  28  48
ATOM     48  O   UNL     1     -16.640 -10.612  19.892  1.00  0.00    -0.381 OA
ATOM     49  H   UNL     1     -16.396 -10.632  20.834  1.00  0.00    +0.212 HD
ENDBRANCH  28  48
BRANCH  36  50
ATOM     50  O   UNL     1     -16.315  -6.154  20.359  1.00  0.00    -0.386 OA
ATOM     51  H   UNL     1     -17.001  -5.796  20.956  1.00  0.00    +0.211 HD
ENDBRANCH  36  50
ENDBRANCH   8   9
ENDBRANCH   2   8
BRANCH   4  52
ATOM     52  O   UNL     1     -20.701 -17.026  12.986  1.00  0.00    -0.378 OA
ATOM     53  C   UNL     1     -20.270 -18.322  12.582  1.00  0.00    +0.195 C 
ENDBRANCH   4  52
BRANCH   3  54
ATOM     54  O   UNL     1     -20.207 -16.535   9.927  1.00  0.00    -0.344 OA
BRANCH  54  55
ATOM     55  C   UNL     1     -20.010 -15.374   9.114  1.00  0.00    +0.253 C 
ATOM     56  O   UNL     1     -20.528 -14.244   9.813  1.00  0.00    -0.347 OA
ATOM     57  C   UNL     1     -20.711 -15.650   7.785  1.00  0.00    +0.097 C 
ATOM     58  C   UNL     1     -20.996 -13.164   9.005  1.00  0.00    +0.149 C 
ATOM     59  C   UNL     1     -22.138 -15.127   7.816  1.00  0.00    +0.154 C 
ATOM     60  C   UNL     1     -22.142 -13.607   8.069  1.00  0.00    +0.172 C 
ATOM     61  C   UNL     1     -19.842 -12.489   8.268  1.00  0.00    +0.041 C 
BRANCH  59  62
ATOM     62  O   UNL     1     -22.759 -15.364   6.538  1.00  0.00    -0.378 OA
ATOM     63  C   UNL     1     -22.289 -14.481   5.528  1.00  0.00    +0.195 C 
ENDBRANCH  59  62
BRANCH  60  64
ATOM     64  O   UNL     1     -23.411 -13.274   8.668  1.00  0.00    -0.388 OA
ATOM     65  H   UNL     1     -23.455 -12.307   8.745  1.00  0.00    +0.211 HD
ENDBRANCH  60  64
ENDBRANCH  54  55
ENDBRANCH   3  54
TORSDOF 11
ENDMDL
MODEL 9
REMARK VINA RESULT:    -7.867      5.928     14.236
REMARK INTER + INTRA:         -13.872
REMARK INTER:                 -12.581
REMARK INTRA:                  -1.292
REMARK UNBOUND:                -1.636
REMARK SMILES CC[C@H](C)[C@H]1O[C@]2(CC[C@@H]1C)C[C@@H]1C[C@@H](C/C=C(\C)[C@@H](O[C@H]3C[C@H](OC)[C@@H](O[C@H]4C[C@H](OC)[C@@H](O)[C@H](C)O4)[C@H](C)O3)[C@@H](C)/C=C/C=C3\CO[C@@H]4[C@H](O)C(C)=C[C@@H](C(=O)O1)[C@]34O)O2
REMARK SMILES IDX 41 1 22 2 27 3 24 4 23 5 39 6 40 7 21 8 20 9 6 10 7 11 5 12
REMARK SMILES IDX 62 13 8 14 12 15 10 16 15 17 9 18 13 19 14 20 16 21 59 22
REMARK SMILES IDX 17 23 57 24 18 25 58 26 56 27 60 28 55 29 42 30 50 31 47 32
REMARK SMILES IDX 53 33 44 34 49 35 51 36 48 37 46 38 45 39 11 40 19 41 43 42
REMARK SMILES IDX 54 43 3 44 4 45 2 46 1 47 61 48 52 50 25 52 26 53 28 54
REMARK SMILES IDX 29 55 38 56 30 57 36 58 31 59 34 60 37 61 32 62 33 63 35 64
REMARK H PARENT 61 49 52 51 35 65
ROOT
ATOM      1  O   UNL     1     -16.371  -8.831  18.851  1.00  0.00    -0.347 OA
ATOM      2  C   UNL     1     -15.711 -10.059  18.552  1.00  0.00    +0.253 C 
ATOM      3  C   UNL     1     -15.049  -8.869  20.931  1.00  0.00    +0.179 C 
ATOM      4  C   UNL     1     -13.909  -9.673  20.264  1.00  0.00    +0.154 C 
ATOM      5  C   UNL     1     -14.205  -9.971  18.794  1.00  0.00    +0.097 C 
ATOM      6  C   UNL     1     -15.763  -8.025  19.865  1.00  0.00    +0.150 C 
ATOM      7  C   UNL     1     -16.867  -7.157  20.466  1.00  0.00    +0.041 C 
ENDROOT
BRANCH   2   8
ATOM      8  O   UNL     1     -15.903 -10.351  17.168  1.00  0.00    -0.344 OA
BRANCH   8   9
ATOM      9  C   UNL     1     -14.766 -10.912  16.487  1.00  0.00    +0.153 C 
ATOM     10  O   UNL     1     -17.352  -8.407  10.267  1.00  0.00    -0.346 OA
ATOM     11  C   UNL     1     -16.291  -9.182   9.694  1.00  0.00    +0.172 C 
ATOM     12  C   UNL     1     -17.226  -7.001  10.045  1.00  0.00    +0.127 C 
ATOM     13  O   UNL     1     -15.154  -9.227  10.572  1.00  0.00    -0.346 OA
ATOM     14  C   UNL     1     -15.796  -8.574   8.363  1.00  0.00    +0.066 C 
ATOM     15  C   UNL     1     -16.829 -10.603   9.453  1.00  0.00    +0.111 C 
ATOM     16  C   UNL     1     -17.482  -6.705   8.544  1.00  0.00    +0.015 C 
ATOM     17  C   UNL     1     -15.439  -9.788  11.860  1.00  0.00    +0.129 C 
ATOM     18  C   UNL     1     -16.910  -7.823   7.650  1.00  0.00    +0.011 C 
ATOM     19  C   UNL     1     -17.166 -11.274  10.778  1.00  0.00    +0.184 C 
ATOM     20  C   UNL     1     -15.960 -11.208  11.698  1.00  0.00    +0.078 C 
ATOM     21  C   UNL     1     -14.145  -9.749  12.703  1.00  0.00    +0.059 C 
ATOM     22  O   UNL     1     -17.421 -12.680  10.603  1.00  0.00    -0.462 OA
ATOM     23  C   UNL     1     -14.270 -10.497  14.011  1.00  0.00    -0.023 C 
ATOM     24  C   UNL     1     -18.708 -13.081  10.390  1.00  0.00    +0.316 C 
ATOM     25  C   UNL     1     -14.526 -10.018  15.246  1.00  0.00    -0.048 C 
ATOM     26  O   UNL     1     -19.637 -12.332  10.129  1.00  0.00    -0.251 OA
ATOM     27  C   UNL     1     -18.764 -14.602  10.526  1.00  0.00    +0.161 C 
ATOM     28  C   UNL     1     -19.037 -15.021  11.997  1.00  0.00    +0.134 C 
ATOM     29  C   UNL     1     -19.720 -15.225   9.536  1.00  0.00    -0.007 C 
ATOM     30  C   UNL     1     -14.986 -12.452  16.238  1.00  0.00    +0.042 C 
ATOM     31  C   UNL     1     -19.208 -16.536  12.095  1.00  0.00    +0.188 C 
ATOM     32  C   UNL     1     -17.804 -14.896  12.866  1.00  0.00    -0.009 C 
ATOM     33  C   UNL     1     -20.357 -16.384   9.777  1.00  0.00    -0.045 C 
ATOM     34  C   UNL     1     -16.244 -12.751  15.436  1.00  0.00    -0.021 C 
ATOM     35  O   UNL     1     -17.864 -17.057  11.925  1.00  0.00    -0.367 OA
ATOM     36  C   UNL     1     -20.208 -17.128  11.082  1.00  0.00    +0.172 C 
ATOM     37  C   UNL     1     -17.004 -16.152  12.660  1.00  0.00    +0.195 C 
ATOM     38  C   UNL     1     -17.554 -13.897  13.729  1.00  0.00    +0.004 C 
ATOM     39  C   UNL     1     -16.367 -13.749  14.544  1.00  0.00    -0.004 C 
ATOM     40  C   UNL     1     -16.910  -5.340   8.150  1.00  0.00    +0.010 C 
ATOM     41  C   UNL     1     -14.606  -8.536  15.529  1.00  0.00    +0.042 C 
ATOM     42  C   UNL     1     -15.031 -13.257  17.539  1.00  0.00    +0.015 C 
ATOM     43  C   UNL     1     -21.305 -16.982   8.774  1.00  0.00    +0.042 C 
BRANCH  12  44
ATOM     44  C   UNL     1     -18.181  -6.250  11.014  1.00  0.00    +0.015 C 
ATOM     45  C   UNL     1     -19.590  -6.060  10.429  1.00  0.00    +0.010 C 
BRANCH  44  46
ATOM     46  C   UNL     1     -18.329  -6.973  12.375  1.00  0.00    +0.002 C 
ATOM     47  C   UNL     1     -17.164  -6.750  13.329  1.00  0.00    +0.004 C 
ENDBRANCH  44  46
ENDBRANCH  12  44
BRANCH  28  48
ATOM     48  O   UNL     1     -20.162 -14.357  12.557  1.00  0.00    -0.381 OA
ATOM     49  H   UNL     1     -20.763 -15.023  12.933  1.00  0.00    +0.212 HD
ENDBRANCH  28  48
BRANCH  36  50
ATOM     50  O   UNL     1     -19.847 -18.483  10.804  1.00  0.00    -0.386 OA
ATOM     51  H   UNL     1     -18.939 -18.437  10.447  1.00  0.00    +0.211 HD
ENDBRANCH  36  50
ENDBRANCH   8   9
ENDBRANCH   2   8
BRANCH   4  52
ATOM     52  O   UNL     1     -13.757 -10.907  20.995  1.00  0.00    -0.378 OA
ATOM     53  C   UNL     1     -12.636 -11.675  20.568  1.00  0.00    +0.195 C 
ENDBRANCH   4  52
BRANCH   3  54
ATOM     54  O   UNL     1     -14.489  -8.003  21.930  1.00  0.00    -0.344 OA
BRANCH  54  55
ATOM     55  C   UNL     1     -13.857  -8.717  22.997  1.00  0.00    +0.253 C 
ATOM     56  O   UNL     1     -14.465  -8.321  24.224  1.00  0.00    -0.347 OA
ATOM     57  C   UNL     1     -12.367  -8.392  22.916  1.00  0.00    +0.097 C 
ATOM     58  C   UNL     1     -13.644  -8.400  25.389  1.00  0.00    +0.149 C 
ATOM     59  C   UNL     1     -12.032  -7.200  23.798  1.00  0.00    +0.154 C 
ATOM     60  C   UNL     1     -12.390  -7.507  25.265  1.00  0.00    +0.172 C 
ATOM     61  C   UNL     1     -13.318  -9.852  25.734  1.00  0.00    +0.041 C 
BRANCH  59  62
ATOM     62  O   UNL     1     -10.616  -6.943  23.732  1.00  0.00    -0.378 OA
ATOM     63  C   UNL     1     -10.274  -6.018  22.707  1.00  0.00    +0.195 C 
ENDBRANCH  59  62
BRANCH  60  64
ATOM     64  O   UNL     1     -12.628  -6.245  25.922  1.00  0.00    -0.388 OA
ATOM     65  H   UNL     1     -11.930  -5.631  25.641  1.00  0.00    +0.211 HD
ENDBRANCH  60  64
ENDBRANCH  54  55
ENDBRANCH   3  54
TORSDOF 11
ENDMDL
