MODEL 1
REMARK VINA RESULT:    -9.779      0.000      0.000
REMARK INTER + INTRA:         -16.889
REMARK INTER:                 -15.210
REMARK INTRA:                  -1.678
REMARK UNBOUND:                -1.678
REMARK SMILES CC[C@H](C)[C@H]1O[C@]2(CC[C@@H]1C)C[C@@H]1C[C@@H](C/C=C(\C)[C@@H](O[C@H]3C[C@H](OC)[C@@H](O[C@H]4C[C@H](OC)[C@@H](O)[C@H](C)O4)[C@H](C)O3)[C@@H](C)/C=C/C=C3\CO[C@@H]4[C@H](O)C(C)=C[C@@H](C(=O)O1)[C@]34O)O2
REMARK SMILES IDX 41 1 22 2 27 3 24 4 23 5 39 6 40 7 21 8 20 9 6 10 7 11 5 12
REMARK SMILES IDX 62 13 8 14 12 15 10 16 15 17 9 18 13 19 14 20 16 21 59 22
REMARK SMILES IDX 17 23 57 24 18 25 58 26 56 27 60 28 55 29 42 30 50 31 47 32
REMARK SMILES IDX 53 33 44 34 49 35 51 36 48 37 46 38 45 39 11 40 19 41 43 42
REMARK SMILES IDX 54 43 3 44 4 45 2 46 1 47 61 48 52 50 25 52 26 53 28 54
REMARK SMILES IDX 29 55 38 56 30 57 36 58 31 59 34 60 37 61 32 62 33 63 35 64
REMARK H PARENT 61 49 52 51 35 65
ROOT
ATOM      1  O   UNL     1     -27.826  -1.997 -16.513  1.00  0.00    -0.347 OA
ATOM      2  C   UNL     1     -28.012  -0.636 -16.130  1.00  0.00    +0.253 C 
ATOM      3  C   UNL     1     -30.129  -1.850 -17.381  1.00  0.00    +0.179 C 
ATOM      4  C   UNL     1     -29.997  -0.332 -17.646  1.00  0.00    +0.154 C 
ATOM      5  C   UNL     1     -28.615   0.197 -17.261  1.00  0.00    +0.097 C 
ATOM      6  C   UNL     1     -28.743  -2.504 -17.488  1.00  0.00    +0.150 C 
ATOM      7  C   UNL     1     -28.807  -4.018 -17.295  1.00  0.00    +0.041 C 
ENDROOT
BRANCH   2   8
ATOM      8  O   UNL     1     -26.737  -0.074 -15.822  1.00  0.00    -0.344 OA
BRANCH   8   9
ATOM      9  C   UNL     1     -26.431   0.043 -14.420  1.00  0.00    +0.153 C 
ATOM     10  O   UNL     1     -28.645  -6.726 -13.453  1.00  0.00    -0.346 OA
ATOM     11  C   UNL     1     -28.493  -6.412 -12.063  1.00  0.00    +0.172 C 
ATOM     12  C   UNL     1     -27.766  -7.756 -13.912  1.00  0.00    +0.127 C 
ATOM     13  O   UNL     1     -27.423  -5.475 -11.861  1.00  0.00    -0.346 OA
ATOM     14  C   UNL     1     -28.147  -7.665 -11.230  1.00  0.00    +0.066 C 
ATOM     15  C   UNL     1     -29.822  -5.808 -11.575  1.00  0.00    +0.111 C 
ATOM     16  C   UNL     1     -28.214  -9.108 -13.299  1.00  0.00    +0.015 C 
ATOM     17  C   UNL     1     -27.598  -4.235 -12.558  1.00  0.00    +0.129 C 
ATOM     18  C   UNL     1     -28.726  -8.924 -11.857  1.00  0.00    +0.011 C 
ATOM     19  C   UNL     1     -30.092  -4.483 -12.275  1.00  0.00    +0.184 C 
ATOM     20  C   UNL     1     -28.890  -3.570 -12.107  1.00  0.00    +0.078 C 
ATOM     21  C   UNL     1     -26.369  -3.341 -12.275  1.00  0.00    +0.059 C 
ATOM     22  O   UNL     1     -31.182  -3.775 -11.655  1.00  0.00    -0.462 OA
ATOM     23  C   UNL     1     -26.534  -1.931 -12.794  1.00  0.00    -0.023 C 
ATOM     24  C   UNL     1     -32.441  -3.973 -12.144  1.00  0.00    +0.316 C 
ATOM     25  C   UNL     1     -26.074  -1.385 -13.939  1.00  0.00    -0.048 C 
ATOM     26  O   UNL     1     -32.752  -4.855 -12.929  1.00  0.00    -0.251 OA
ATOM     27  C   UNL     1     -33.362  -2.918 -11.534  1.00  0.00    +0.161 C 
ATOM     28  C   UNL     1     -33.390  -1.631 -12.403  1.00  0.00    +0.134 C 
ATOM     29  C   UNL     1     -34.735  -3.470 -11.234  1.00  0.00    -0.007 C 
ATOM     30  C   UNL     1     -27.598   0.788 -13.669  1.00  0.00    +0.042 C 
ATOM     31  C   UNL     1     -34.404  -0.634 -11.844  1.00  0.00    +0.188 C 
ATOM     32  C   UNL     1     -32.147  -0.787 -12.216  1.00  0.00    -0.009 C 
ATOM     33  C   UNL     1     -35.839  -2.702 -11.227  1.00  0.00    -0.045 C 
ATOM     34  C   UNL     1     -28.945   0.099 -13.829  1.00  0.00    -0.021 C 
ATOM     35  O   UNL     1     -33.772  -0.119 -10.644  1.00  0.00    -0.367 OA
ATOM     36  C   UNL     1     -35.798  -1.233 -11.573  1.00  0.00    +0.172 C 
ATOM     37  C   UNL     1     -32.373   0.044 -10.984  1.00  0.00    +0.195 C 
ATOM     38  C   UNL     1     -31.106  -0.729 -13.064  1.00  0.00    +0.004 C 
ATOM     39  C   UNL     1     -29.900   0.049 -12.884  1.00  0.00    -0.004 C 
ATOM     40  C   UNL     1     -27.080 -10.135 -13.352  1.00  0.00    +0.010 C 
ATOM     41  C   UNL     1     -25.155  -2.138 -14.873  1.00  0.00    +0.042 C 
ATOM     42  C   UNL     1     -27.739   2.249 -14.105  1.00  0.00    +0.015 C 
ATOM     43  C   UNL     1     -37.195  -3.278 -10.926  1.00  0.00    +0.042 C 
BRANCH  12  44
ATOM     44  C   UNL     1     -27.738  -7.739 -15.466  1.00  0.00    +0.015 C 
ATOM     45  C   UNL     1     -29.144  -7.801 -16.085  1.00  0.00    +0.010 C 
BRANCH  44  46
ATOM     46  C   UNL     1     -27.029  -6.484 -16.030  1.00  0.00    +0.002 C 
ATOM     47  C   UNL     1     -25.808  -6.046 -15.233  1.00  0.00    +0.004 C 
ENDBRANCH  44  46
ENDBRANCH  12  44
BRANCH  28  48
ATOM     48  O   UNL     1     -33.659  -1.899 -13.773  1.00  0.00    -0.381 OA
ATOM     49  H   UNL     1     -34.122  -2.752 -13.838  1.00  0.00    +0.212 HD
ENDBRANCH  28  48
BRANCH  36  50
ATOM     50  O   UNL     1     -36.431  -0.493 -10.527  1.00  0.00    -0.386 OA
ATOM     51  H   UNL     1     -37.387  -0.665 -10.636  1.00  0.00    +0.211 HD
ENDBRANCH  36  50
ENDBRANCH   8   9
ENDBRANCH   2   8
BRANCH   4  52
ATOM     52  O   UNL     1     -31.014   0.338 -16.872  1.00  0.00    -0.378 OA
ATOM     53  C   UNL     1     -31.930   1.075 -17.675  1.00  0.00    +0.195 C 
ENDBRANCH   4  52
BRANCH   3  54
ATOM     54  O   UNL     1     -31.004  -2.423 -18.363  1.00  0.00    -0.344 OA
BRANCH  54  55
ATOM     55  C   UNL     1     -32.179  -3.007 -17.791  1.00  0.00    +0.253 C 
ATOM     56  O   UNL     1     -32.034  -3.006 -16.372  1.00  0.00    -0.347 OA
ATOM     57  C   UNL     1     -32.310  -4.403 -18.395  1.00  0.00    +0.097 C 
ATOM     58  C   UNL     1     -32.726  -4.037 -15.668  1.00  0.00    +0.149 C 
ATOM     59  C   UNL     1     -31.623  -5.433 -17.513  1.00  0.00    +0.154 C 
ATOM     60  C   UNL     1     -32.262  -5.442 -16.111  1.00  0.00    +0.172 C 
ATOM     61  C   UNL     1     -34.238  -3.845 -15.760  1.00  0.00    +0.041 C 
BRANCH  59  62
ATOM     62  O   UNL     1     -31.798  -6.743 -18.087  1.00  0.00    -0.378 OA
ATOM     63  C   UNL     1     -30.778  -7.072 -19.022  1.00  0.00    +0.195 C 
ENDBRANCH  59  62
BRANCH  60  64
ATOM     64  O   UNL     1     -31.268  -5.936 -15.189  1.00  0.00    -0.388 OA
ATOM     65  H   UNL     1     -31.404  -6.893 -15.097  1.00  0.00    +0.211 HD
ENDBRANCH  60  64
ENDBRANCH  54  55
ENDBRANCH   3  54
TORSDOF 11
ENDMDL
MODEL 2
REMARK VINA RESULT:    -8.972      2.339      7.177
REMARK INTER + INTRA:         -15.633
REMARK INTER:                 -14.451
REMARK INTRA:                  -1.182
REMARK UNBOUND:                -1.678
REMARK SMILES CC[C@H](C)[C@H]1O[C@]2(CC[C@@H]1C)C[C@@H]1C[C@@H](C/C=C(\C)[C@@H](O[C@H]3C[C@H](OC)[C@@H](O[C@H]4C[C@H](OC)[C@@H](O)[C@H](C)O4)[C@H](C)O3)[C@@H](C)/C=C/C=C3\CO[C@@H]4[C@H](O)C(C)=C[C@@H](C(=O)O1)[C@]34O)O2
REMARK SMILES IDX 41 1 22 2 27 3 24 4 23 5 39 6 40 7 21 8 20 9 6 10 7 11 5 12
REMARK SMILES IDX 62 13 8 14 12 15 10 16 15 17 9 18 13 19 14 20 16 21 59 22
REMARK SMILES IDX 17 23 57 24 18 25 58 26 56 27 60 28 55 29 42 30 50 31 47 32
REMARK SMILES IDX 53 33 44 34 49 35 51 36 48 37 46 38 45 39 11 40 19 41 43 42
REMARK SMILES IDX 54 43 3 44 4 45 2 46 1 47 61 48 52 50 25 52 26 53 28 54
REMARK SMILES IDX 29 55 38 56 30 57 36 58 31 59 34 60 37 61 32 62 33 63 35 64
REMARK H PARENT 61 49 52 51 35 65
ROOT
ATOM      1  O   UNL     1     -30.997  -8.217 -15.685  1.00  0.00    -0.347 OA
ATOM      2  C   UNL     1     -29.691  -8.722 -15.959  1.00  0.00    +0.253 C 
ATOM      3  C   UNL     1     -30.417  -6.434 -17.285  1.00  0.00    +0.179 C 
ATOM      4  C   UNL     1     -29.453  -7.360 -18.062  1.00  0.00    +0.154 C 
ATOM      5  C   UNL     1     -29.401  -8.764 -17.459  1.00  0.00    +0.097 C 
ATOM      6  C   UNL     1     -31.520  -7.283 -16.635  1.00  0.00    +0.150 C 
ATOM      7  C   UNL     1     -32.545  -6.425 -15.897  1.00  0.00    +0.041 C 
ENDROOT
BRANCH   2   8
ATOM      8  O   UNL     1     -29.611 -10.060 -15.472  1.00  0.00    -0.344 OA
BRANCH   8   9
ATOM      9  C   UNL     1     -29.414 -10.195 -14.053  1.00  0.00    +0.153 C 
ATOM     10  O   UNL     1     -35.082  -5.918 -12.940  1.00  0.00    -0.346 OA
ATOM     11  C   UNL     1     -34.655  -5.970 -11.572  1.00  0.00    +0.172 C 
ATOM     12  C   UNL     1     -36.370  -6.496 -13.165  1.00  0.00    +0.127 C 
ATOM     13  O   UNL     1     -34.049  -7.237 -11.270  1.00  0.00    -0.346 OA
ATOM     14  C   UNL     1     -35.841  -5.803 -10.598  1.00  0.00    +0.066 C 
ATOM     15  C   UNL     1     -33.638  -4.835 -11.360  1.00  0.00    +0.111 C 
ATOM     16  C   UNL     1     -37.448  -5.580 -12.530  1.00  0.00    +0.015 C 
ATOM     17  C   UNL     1     -32.908  -7.543 -12.081  1.00  0.00    +0.129 C 
ATOM     18  C   UNL     1     -36.947  -4.958 -11.212  1.00  0.00    +0.011 C 
ATOM     19  C   UNL     1     -32.389  -5.077 -12.196  1.00  0.00    +0.184 C 
ATOM     20  C   UNL     1     -31.848  -6.466 -11.904  1.00  0.00    +0.078 C 
ATOM     21  C   UNL     1     -32.379  -8.935 -11.669  1.00  0.00    +0.059 C 
ATOM     22  O   UNL     1     -31.325  -4.181 -11.823  1.00  0.00    -0.462 OA
ATOM     23  C   UNL     1     -31.057  -9.279 -12.317  1.00  0.00    -0.023 C 
ATOM     24  C   UNL     1     -31.211  -3.000 -12.497  1.00  0.00    +0.316 C 
ATOM     25  C   UNL     1     -30.813 -10.033 -13.409  1.00  0.00    -0.048 C 
ATOM     26  O   UNL     1     -32.056  -2.544 -13.252  1.00  0.00    -0.251 OA
ATOM     27  C   UNL     1     -29.868  -2.370 -12.132  1.00  0.00    +0.161 C 
ATOM     28  C   UNL     1     -28.745  -2.852 -13.092  1.00  0.00    +0.134 C 
ATOM     29  C   UNL     1     -29.958  -0.866 -12.021  1.00  0.00    -0.007 C 
ATOM     30  C   UNL     1     -28.277  -9.221 -13.566  1.00  0.00    +0.042 C 
ATOM     31  C   UNL     1     -27.437  -2.123 -12.789  1.00  0.00    +0.188 C 
ATOM     32  C   UNL     1     -28.280  -4.255 -12.768  1.00  0.00    -0.009 C 
ATOM     33  C   UNL     1     -28.910  -0.058 -12.258  1.00  0.00    -0.045 C 
ATOM     34  C   UNL     1     -28.562  -7.762 -13.892  1.00  0.00    -0.021 C 
ATOM     35  O   UNL     1     -26.981  -2.715 -11.544  1.00  0.00    -0.367 OA
ATOM     36  C   UNL     1     -27.570  -0.590 -12.706  1.00  0.00    +0.172 C 
ATOM     37  C   UNL     1     -27.272  -4.129 -11.659  1.00  0.00    +0.195 C 
ATOM     38  C   UNL     1     -28.631  -5.369 -13.434  1.00  0.00    +0.004 C 
ATOM     39  C   UNL     1     -28.217  -6.719 -13.118  1.00  0.00    -0.004 C 
ATOM     40  C   UNL     1     -38.758  -6.344 -12.314  1.00  0.00    +0.010 C 
ATOM     41  C   UNL     1     -31.909 -10.797 -14.116  1.00  0.00    +0.042 C 
ATOM     42  C   UNL     1     -26.904  -9.590 -14.133  1.00  0.00    +0.015 C 
ATOM     43  C   UNL     1     -29.028   1.437 -12.142  1.00  0.00    +0.042 C 
BRANCH  12  44
ATOM     44  C   UNL     1     -36.555  -6.736 -14.689  1.00  0.00    +0.015 C 
ATOM     45  C   UNL     1     -36.040  -5.565 -15.541  1.00  0.00    +0.010 C 
BRANCH  44  46
ATOM     46  C   UNL     1     -35.842  -8.023 -15.175  1.00  0.00    +0.002 C 
ATOM     47  C   UNL     1     -35.678  -9.088 -14.100  1.00  0.00    +0.004 C 
ENDBRANCH  44  46
ENDBRANCH  12  44
BRANCH  28  48
ATOM     48  O   UNL     1     -29.093  -2.702 -14.462  1.00  0.00    -0.381 OA
ATOM     49  H   UNL     1     -28.888  -3.531 -14.929  1.00  0.00    +0.212 HD
ENDBRANCH  28  48
BRANCH  36  50
ATOM     50  O   UNL     1     -26.555  -0.077 -11.840  1.00  0.00    -0.386 OA
ATOM     51  H   UNL     1     -25.820  -0.718 -11.902  1.00  0.00    +0.211 HD
ENDBRANCH  36  50
ENDBRANCH   8   9
ENDBRANCH   2   8
BRANCH   4  52
ATOM     52  O   UNL     1     -28.142  -6.759 -18.023  1.00  0.00    -0.378 OA
ATOM     53  C   UNL     1     -27.866  -6.102 -16.789  1.00  0.00    +0.195 C 
ENDBRANCH   4  52
BRANCH   3  54
ATOM     54  O   UNL     1     -31.011  -5.502 -18.201  1.00  0.00    -0.344 OA
BRANCH  54  55
ATOM     55  C   UNL     1     -31.575  -4.360 -17.548  1.00  0.00    +0.253 C 
ATOM     56  O   UNL     1     -32.225  -3.557 -18.531  1.00  0.00    -0.347 OA
ATOM     57  C   UNL     1     -30.422  -3.652 -16.838  1.00  0.00    +0.097 C 
ATOM     58  C   UNL     1     -32.296  -2.158 -18.255  1.00  0.00    +0.149 C 
ATOM     59  C   UNL     1     -29.822  -2.580 -17.734  1.00  0.00    +0.154 C 
ATOM     60  C   UNL     1     -30.892  -1.534 -18.101  1.00  0.00    +0.172 C 
ATOM     61  C   UNL     1     -33.213  -1.881 -17.064  1.00  0.00    +0.041 C 
BRANCH  59  62
ATOM     62  O   UNL     1     -28.767  -1.904 -17.024  1.00  0.00    -0.378 OA
ATOM     63  C   UNL     1     -27.611  -1.698 -17.826  1.00  0.00    +0.195 C 
ENDBRANCH  59  62
BRANCH  60  64
ATOM     64  O   UNL     1     -30.492  -0.930 -19.348  1.00  0.00    -0.388 OA
ATOM     65  H   UNL     1     -29.528  -0.819 -19.325  1.00  0.00    +0.211 HD
ENDBRANCH  60  64
ENDBRANCH  54  55
ENDBRANCH   3  54
TORSDOF 11
ENDMDL
MODEL 3
REMARK VINA RESULT:    -8.917      2.498      7.030
REMARK INTER + INTRA:         -15.547
REMARK INTER:                 -13.056
REMARK INTRA:                  -2.491
REMARK UNBOUND:                -1.678
REMARK SMILES CC[C@H](C)[C@H]1O[C@]2(CC[C@@H]1C)C[C@@H]1C[C@@H](C/C=C(\C)[C@@H](O[C@H]3C[C@H](OC)[C@@H](O[C@H]4C[C@H](OC)[C@@H](O)[C@H](C)O4)[C@H](C)O3)[C@@H](C)/C=C/C=C3\CO[C@@H]4[C@H](O)C(C)=C[C@@H](C(=O)O1)[C@]34O)O2
REMARK SMILES IDX 41 1 22 2 27 3 24 4 23 5 39 6 40 7 21 8 20 9 6 10 7 11 5 12
REMARK SMILES IDX 62 13 8 14 12 15 10 16 15 17 9 18 13 19 14 20 16 21 59 22
REMARK SMILES IDX 17 23 57 24 18 25 58 26 56 27 60 28 55 29 42 30 50 31 47 32
REMARK SMILES IDX 53 33 44 34 49 35 51 36 48 37 46 38 45 39 11 40 19 41 43 42
REMARK SMILES IDX 54 43 3 44 4 45 2 46 1 47 61 48 52 50 25 52 26 53 28 54
REMARK SMILES IDX 29 55 38 56 30 57 36 58 31 59 34 60 37 61 32 62 33 63 35 64
REMARK H PARENT 61 49 52 51 35 65
ROOT
ATOM      1  O   UNL     1     -29.943  -7.746 -11.143  1.00  0.00    -0.347 OA
ATOM      2  C   UNL     1     -28.794  -6.907 -11.241  1.00  0.00    +0.253 C 
ATOM      3  C   UNL     1     -29.922  -7.710 -13.608  1.00  0.00    +0.179 C 
ATOM      4  C   UNL     1     -28.391  -7.501 -13.653  1.00  0.00    +0.154 C 
ATOM      5  C   UNL     1     -27.782  -7.444 -12.251  1.00  0.00    +0.097 C 
ATOM      6  C   UNL     1     -30.291  -8.472 -12.326  1.00  0.00    +0.150 C 
ATOM      7  C   UNL     1     -31.788  -8.767 -12.244  1.00  0.00    +0.041 C 
ENDROOT
BRANCH   2   8
ATOM      8  O   UNL     1     -28.149  -6.872  -9.969  1.00  0.00    -0.344 OA
BRANCH   8   9
ATOM      9  C   UNL     1     -28.368  -5.680  -9.193  1.00  0.00    +0.153 C 
ATOM     10  O   UNL     1     -34.995  -5.206 -11.933  1.00  0.00    -0.346 OA
ATOM     11  C   UNL     1     -35.008  -3.933 -11.274  1.00  0.00    +0.172 C 
ATOM     12  C   UNL     1     -35.962  -6.129 -11.426  1.00  0.00    +0.127 C 
ATOM     13  O   UNL     1     -34.223  -3.969 -10.071  1.00  0.00    -0.346 OA
ATOM     14  C   UNL     1     -36.436  -3.522 -10.857  1.00  0.00    +0.066 C 
ATOM     15  C   UNL     1     -34.428  -2.897 -12.252  1.00  0.00    +0.111 C 
ATOM     16  C   UNL     1     -37.378  -5.648 -11.836  1.00  0.00    +0.015 C 
ATOM     17  C   UNL     1     -32.850  -4.320 -10.284  1.00  0.00    +0.129 C 
ATOM     18  C   UNL     1     -37.478  -4.111 -11.796  1.00  0.00    +0.011 C 
ATOM     19  C   UNL     1     -32.964  -3.202 -12.542  1.00  0.00    +0.184 C 
ATOM     20  C   UNL     1     -32.205  -3.321 -11.232  1.00  0.00    +0.078 C 
ATOM     21  C   UNL     1     -32.137  -4.347  -8.914  1.00  0.00    +0.059 C 
ATOM     22  O   UNL     1     -32.330  -2.113 -13.239  1.00  0.00    -0.462 OA
ATOM     23  C   UNL     1     -30.638  -4.509  -9.032  1.00  0.00    -0.023 C 
ATOM     24  C   UNL     1     -32.319  -2.140 -14.603  1.00  0.00    +0.316 C 
ATOM     25  C   UNL     1     -29.889  -5.625  -8.911  1.00  0.00    -0.048 C 
ATOM     26  O   UNL     1     -32.979  -2.903 -15.291  1.00  0.00    -0.251 OA
ATOM     27  C   UNL     1     -31.358  -1.058 -15.095  1.00  0.00    +0.161 C 
ATOM     28  C   UNL     1     -29.912  -1.612 -15.223  1.00  0.00    +0.134 C 
ATOM     29  C   UNL     1     -31.857  -0.385 -16.351  1.00  0.00    -0.007 C 
ATOM     30  C   UNL     1     -27.720  -4.436  -9.910  1.00  0.00    +0.042 C 
ATOM     31  C   UNL     1     -28.989  -0.555 -15.827  1.00  0.00    +0.188 C 
ATOM     32  C   UNL     1     -29.227  -1.741 -13.879  1.00  0.00    -0.009 C 
ATOM     33  C   UNL     1     -31.027   0.159 -17.259  1.00  0.00    -0.045 C 
ATOM     34  C   UNL     1     -28.252  -4.218 -11.319  1.00  0.00    -0.021 C 
ATOM     35  O   UNL     1     -28.801   0.406 -14.756  1.00  0.00    -0.367 OA
ATOM     36  C   UNL     1     -29.526   0.091 -17.119  1.00  0.00    +0.172 C 
ATOM     37  C   UNL     1     -28.674  -0.383 -13.547  1.00  0.00    +0.195 C 
ATOM     38  C   UNL     1     -29.063  -2.884 -13.191  1.00  0.00    +0.004 C 
ATOM     39  C   UNL     1     -28.437  -3.016 -11.893  1.00  0.00    -0.004 C 
ATOM     40  C   UNL     1     -38.451  -6.292 -10.954  1.00  0.00    +0.010 C 
ATOM     41  C   UNL     1     -30.485  -6.948  -8.486  1.00  0.00    +0.042 C 
ATOM     42  C   UNL     1     -26.193  -4.523  -9.971  1.00  0.00    +0.015 C 
ATOM     43  C   UNL     1     -31.551   0.823 -18.503  1.00  0.00    +0.042 C 
BRANCH  12  44
ATOM     44  C   UNL     1     -35.605  -7.557 -11.924  1.00  0.00    +0.015 C 
ATOM     45  C   UNL     1     -35.553  -8.588 -10.784  1.00  0.00    +0.010 C 
BRANCH  44  46
ATOM     46  C   UNL     1     -36.602  -8.078 -12.987  1.00  0.00    +0.002 C 
ATOM     47  C   UNL     1     -37.278  -9.391 -12.616  1.00  0.00    +0.004 C 
ENDBRANCH  44  46
ENDBRANCH  12  44
BRANCH  28  48
ATOM     48  O   UNL     1     -29.850  -2.816 -15.977  1.00  0.00    -0.381 OA
ATOM     49  H   UNL     1     -28.920  -3.090 -16.052  1.00  0.00    +0.212 HD
ENDBRANCH  28  48
BRANCH  36  50
ATOM     50  O   UNL     1     -28.989   1.410 -17.242  1.00  0.00    -0.386 OA
ATOM     51  H   UNL     1     -29.243   1.706 -18.138  1.00  0.00    +0.211 HD
ENDBRANCH  36  50
ENDBRANCH   8   9
ENDBRANCH   2   8
BRANCH   4  52
ATOM     52  O   UNL     1     -28.139  -6.263 -14.350  1.00  0.00    -0.378 OA
ATOM     53  C   UNL     1     -27.343  -6.434 -15.519  1.00  0.00    +0.195 C 
ENDBRANCH   4  52
BRANCH   3  54
ATOM     54  O   UNL     1     -30.324  -8.478 -14.752  1.00  0.00    -0.344 OA
BRANCH  54  55
ATOM     55  C   UNL     1     -30.888  -7.675 -15.793  1.00  0.00    +0.253 C 
ATOM     56  O   UNL     1     -31.112  -6.364 -15.277  1.00  0.00    -0.347 OA
ATOM     57  C   UNL     1     -32.163  -8.383 -16.247  1.00  0.00    +0.097 C 
ATOM     58  C   UNL     1     -32.176  -5.624 -15.875  1.00  0.00    +0.149 C 
ATOM     59  C   UNL     1     -33.367  -7.859 -15.479  1.00  0.00    +0.154 C 
ATOM     60  C   UNL     1     -33.532  -6.346 -15.718  1.00  0.00    +0.172 C 
ATOM     61  C   UNL     1     -31.848  -5.266 -17.323  1.00  0.00    +0.041 C 
BRANCH  59  62
ATOM     62  O   UNL     1     -34.557  -8.515 -15.956  1.00  0.00    -0.378 OA
ATOM     63  C   UNL     1     -34.616  -9.885 -15.579  1.00  0.00    +0.195 C 
ENDBRANCH  59  62
BRANCH  60  64
ATOM     64  O   UNL     1     -34.238  -5.806 -14.582  1.00  0.00    -0.388 OA
ATOM     65  H   UNL     1     -33.601  -5.723 -13.853  1.00  0.00    +0.211 HD
ENDBRANCH  60  64
ENDBRANCH  54  55
ENDBRANCH   3  54
TORSDOF 11
ENDMDL
MODEL 4
REMARK VINA RESULT:    -8.694      2.496      8.065
REMARK INTER + INTRA:         -15.201
REMARK INTER:                 -13.482
REMARK INTRA:                  -1.719
REMARK UNBOUND:                -1.678
REMARK SMILES CC[C@H](C)[C@H]1O[C@]2(CC[C@@H]1C)C[C@@H]1C[C@@H](C/C=C(\C)[C@@H](O[C@H]3C[C@H](OC)[C@@H](O[C@H]4C[C@H](OC)[C@@H](O)[C@H](C)O4)[C@H](C)O3)[C@@H](C)/C=C/C=C3\CO[C@@H]4[C@H](O)C(C)=C[C@@H](C(=O)O1)[C@]34O)O2
REMARK SMILES IDX 41 1 22 2 27 3 24 4 23 5 39 6 40 7 21 8 20 9 6 10 7 11 5 12
REMARK SMILES IDX 62 13 8 14 12 15 10 16 15 17 9 18 13 19 14 20 16 21 59 22
REMARK SMILES IDX 17 23 57 24 18 25 58 26 56 27 60 28 55 29 42 30 50 31 47 32
REMARK SMILES IDX 53 33 44 34 49 35 51 36 48 37 46 38 45 39 11 40 19 41 43 42
REMARK SMILES IDX 54 43 3 44 4 45 2 46 1 47 61 48 52 50 25 52 26 53 28 54
REMARK SMILES IDX 29 55 38 56 30 57 36 58 31 59 34 60 37 61 32 62 33 63 35 64
REMARK H PARENT 61 49 52 51 35 65
ROOT
ATOM      1  O   UNL     1     -31.570  -2.325 -14.332  1.00  0.00    -0.347 OA
ATOM      2  C   UNL     1     -30.629  -1.479 -14.991  1.00  0.00    +0.253 C 
ATOM      3  C   UNL     1     -29.921  -2.385 -12.501  1.00  0.00    +0.179 C 
ATOM      4  C   UNL     1     -29.372  -0.987 -12.867  1.00  0.00    +0.154 C 
ATOM      5  C   UNL     1     -30.105  -0.382 -14.066  1.00  0.00    +0.097 C 
ATOM      6  C   UNL     1     -31.396  -2.475 -12.920  1.00  0.00    +0.150 C 
ATOM      7  C   UNL     1     -32.021  -3.814 -12.533  1.00  0.00    +0.041 C 
ENDROOT
BRANCH   2   8
ATOM      8  O   UNL     1     -31.284  -0.838 -16.084  1.00  0.00    -0.344 OA
BRANCH   8   9
ATOM      9  C   UNL     1     -31.336  -1.593 -17.308  1.00  0.00    +0.153 C 
ATOM     10  O   UNL     1     -34.453  -7.002 -13.747  1.00  0.00    -0.346 OA
ATOM     11  C   UNL     1     -34.258  -7.716 -14.974  1.00  0.00    +0.172 C 
ATOM     12  C   UNL     1     -35.826  -6.824 -13.394  1.00  0.00    +0.127 C 
ATOM     13  O   UNL     1     -34.349  -6.832 -16.104  1.00  0.00    -0.346 OA
ATOM     14  C   UNL     1     -35.333  -8.805 -15.178  1.00  0.00    +0.066 C 
ATOM     15  C   UNL     1     -32.862  -8.360 -14.921  1.00  0.00    +0.111 C 
ATOM     16  C   UNL     1     -36.420  -8.197 -12.983  1.00  0.00    +0.015 C 
ATOM     17  C   UNL     1     -33.397  -5.761 -16.082  1.00  0.00    +0.129 C 
ATOM     18  C   UNL     1     -35.842  -9.335 -13.846  1.00  0.00    +0.011 C 
ATOM     19  C   UNL     1     -31.782  -7.287 -14.887  1.00  0.00    +0.184 C 
ATOM     20  C   UNL     1     -31.986  -6.329 -16.048  1.00  0.00    +0.078 C 
ATOM     21  C   UNL     1     -33.626  -4.881 -17.330  1.00  0.00    +0.059 C 
ATOM     22  O   UNL     1     -30.475  -7.852 -15.099  1.00  0.00    -0.462 OA
ATOM     23  C   UNL     1     -32.551  -3.836 -17.521  1.00  0.00    -0.023 C 
ATOM     24  C   UNL     1     -29.748  -8.226 -14.006  1.00  0.00    +0.316 C 
ATOM     25  C   UNL     1     -32.562  -2.529 -17.182  1.00  0.00    -0.048 C 
ATOM     26  O   UNL     1     -30.192  -8.314 -12.872  1.00  0.00    -0.251 OA
ATOM     27  C   UNL     1     -28.318  -8.514 -14.459  1.00  0.00    +0.161 C 
ATOM     28  C   UNL     1     -27.447  -7.229 -14.410  1.00  0.00    +0.134 C 
ATOM     29  C   UNL     1     -27.712  -9.680 -13.713  1.00  0.00    -0.007 C 
ATOM     30  C   UNL     1     -29.940  -2.264 -17.593  1.00  0.00    +0.042 C 
ATOM     31  C   UNL     1     -25.994  -7.558 -14.750  1.00  0.00    +0.188 C 
ATOM     32  C   UNL     1     -27.727  -6.303 -15.573  1.00  0.00    -0.009 C 
ATOM     33  C   UNL     1     -26.388  -9.795 -13.504  1.00  0.00    -0.045 C 
ATOM     34  C   UNL     1     -29.475  -3.175 -16.466  1.00  0.00    -0.021 C 
ATOM     35  O   UNL     1     -26.011  -7.801 -16.180  1.00  0.00    -0.367 OA
ATOM     36  C   UNL     1     -25.408  -8.739 -13.951  1.00  0.00    +0.172 C 
ATOM     37  C   UNL     1     -26.910  -6.808 -16.730  1.00  0.00    +0.195 C 
ATOM     38  C   UNL     1     -28.476  -5.188 -15.523  1.00  0.00    +0.004 C 
ATOM     39  C   UNL     1     -28.777  -4.311 -16.634  1.00  0.00    -0.004 C 
ATOM     40  C   UNL     1     -37.950  -8.175 -13.056  1.00  0.00    +0.010 C 
ATOM     41  C   UNL     1     -33.799  -1.855 -16.633  1.00  0.00    +0.042 C 
ATOM     42  C   UNL     1     -28.841  -1.237 -17.878  1.00  0.00    +0.015 C 
ATOM     43  C   UNL     1     -25.811 -10.966 -12.757  1.00  0.00    +0.042 C 
BRANCH  12  44
ATOM     44  C   UNL     1     -35.926  -5.732 -12.293  1.00  0.00    +0.015 C 
ATOM     45  C   UNL     1     -34.952  -5.972 -11.128  1.00  0.00    +0.010 C 
BRANCH  44  46
ATOM     46  C   UNL     1     -35.660  -4.310 -12.846  1.00  0.00    +0.002 C 
ATOM     47  C   UNL     1     -36.484  -3.217 -12.178  1.00  0.00    +0.004 C 
ENDBRANCH  44  46
ENDBRANCH  12  44
BRANCH  28  48
ATOM     48  O   UNL     1     -27.525  -6.560 -13.157  1.00  0.00    -0.381 OA
ATOM     49  H   UNL     1     -27.920  -7.165 -12.505  1.00  0.00    +0.212 HD
ENDBRANCH  28  48
BRANCH  36  50
ATOM     50  O   UNL     1     -24.377  -9.360 -14.723  1.00  0.00    -0.386 OA
ATOM     51  H   UNL     1     -23.719  -8.656 -14.883  1.00  0.00    +0.211 HD
ENDBRANCH  36  50
ENDBRANCH   8   9
ENDBRANCH   2   8
BRANCH   4  52
ATOM     52  O   UNL     1     -27.969  -1.132 -13.170  1.00  0.00    -0.378 OA
ATOM     53  C   UNL     1     -27.137  -0.289 -12.378  1.00  0.00    +0.195 C 
ENDBRANCH   4  52
BRANCH   3  54
ATOM     54  O   UNL     1     -29.815  -2.573 -11.082  1.00  0.00    -0.344 OA
BRANCH  54  55
ATOM     55  C   UNL     1     -29.420  -3.901 -10.723  1.00  0.00    +0.253 C 
ATOM     56  O   UNL     1     -29.147  -3.925  -9.324  1.00  0.00    -0.347 OA
ATOM     57  C   UNL     1     -28.211  -4.245 -11.592  1.00  0.00    +0.097 C 
ATOM     58  C   UNL     1     -28.193  -4.892  -8.885  1.00  0.00    +0.149 C 
ATOM     59  C   UNL     1     -26.919  -3.892 -10.872  1.00  0.00    +0.154 C 
ATOM     60  C   UNL     1     -26.816  -4.678  -9.551  1.00  0.00    +0.172 C 
ATOM     61  C   UNL     1     -28.731  -6.311  -9.055  1.00  0.00    +0.041 C 
BRANCH  59  62
ATOM     62  O   UNL     1     -25.799  -4.265 -11.697  1.00  0.00    -0.378 OA
ATOM     63  C   UNL     1     -25.858  -3.686 -12.995  1.00  0.00    +0.195 C 
ENDBRANCH  59  62
BRANCH  60  64
ATOM     64  O   UNL     1     -25.963  -3.922  -8.666  1.00  0.00    -0.388 OA
ATOM     65  H   UNL     1     -26.214  -2.987  -8.747  1.00  0.00    +0.211 HD
ENDBRANCH  60  64
ENDBRANCH  54  55
ENDBRANCH   3  54
TORSDOF 11
ENDMDL
MODEL 5
REMARK VINA RESULT:    -8.465      2.918      8.241
REMARK INTER + INTRA:         -14.845
REMARK INTER:                 -13.992
REMARK INTRA:                  -0.853
REMARK UNBOUND:                -1.678
REMARK SMILES CC[C@H](C)[C@H]1O[C@]2(CC[C@@H]1C)C[C@@H]1C[C@@H](C/C=C(\C)[C@@H](O[C@H]3C[C@H](OC)[C@@H](O[C@H]4C[C@H](OC)[C@@H](O)[C@H](C)O4)[C@H](C)O3)[C@@H](C)/C=C/C=C3\CO[C@@H]4[C@H](O)C(C)=C[C@@H](C(=O)O1)[C@]34O)O2
REMARK SMILES IDX 41 1 22 2 27 3 24 4 23 5 39 6 40 7 21 8 20 9 6 10 7 11 5 12
REMARK SMILES IDX 62 13 8 14 12 15 10 16 15 17 9 18 13 19 14 20 16 21 59 22
REMARK SMILES IDX 17 23 57 24 18 25 58 26 56 27 60 28 55 29 42 30 50 31 47 32
REMARK SMILES IDX 53 33 44 34 49 35 51 36 48 37 46 38 45 39 11 40 19 41 43 42
REMARK SMILES IDX 54 43 3 44 4 45 2 46 1 47 61 48 52 50 25 52 26 53 28 54
REMARK SMILES IDX 29 55 38 56 30 57 36 58 31 59 34 60 37 61 32 62 33 63 35 64
REMARK H PARENT 61 49 52 51 35 65
ROOT
ATOM      1  O   UNL     1     -34.634  -4.215 -13.360  1.00  0.00    -0.347 OA
ATOM      2  C   UNL     1     -34.974  -4.324 -11.979  1.00  0.00    +0.253 C 
ATOM      3  C   UNL     1     -35.042  -6.645 -13.437  1.00  0.00    +0.179 C 
ATOM      4  C   UNL     1     -36.062  -6.572 -12.278  1.00  0.00    +0.154 C 
ATOM      5  C   UNL     1     -36.246  -5.142 -11.768  1.00  0.00    +0.097 C 
ATOM      6  C   UNL     1     -35.038  -5.307 -14.192  1.00  0.00    +0.150 C 
ATOM      7  C   UNL     1     -34.093  -5.328 -15.391  1.00  0.00    +0.041 C 
ENDROOT
BRANCH   2   8
ATOM      8  O   UNL     1     -35.221  -3.014 -11.469  1.00  0.00    -0.344 OA
BRANCH   8   9
ATOM      9  C   UNL     1     -34.205  -2.484 -10.598  1.00  0.00    +0.153 C 
ATOM     10  O   UNL     1     -30.120  -1.086 -16.344  1.00  0.00    -0.346 OA
ATOM     11  C   UNL     1     -29.120  -0.780 -15.364  1.00  0.00    +0.172 C 
ATOM     12  C   UNL     1     -30.507   0.035 -17.143  1.00  0.00    +0.127 C 
ATOM     13  O   UNL     1     -29.714  -0.240 -14.173  1.00  0.00    -0.346 OA
ATOM     14  C   UNL     1     -28.121   0.279 -15.879  1.00  0.00    +0.066 C 
ATOM     15  C   UNL     1     -28.376  -2.087 -15.036  1.00  0.00    +0.111 C 
ATOM     16  C   UNL     1     -29.334   0.406 -18.088  1.00  0.00    +0.015 C 
ATOM     17  C   UNL     1     -30.663  -1.114 -13.550  1.00  0.00    +0.129 C 
ATOM     18  C   UNL     1     -27.974   0.210 -17.392  1.00  0.00    +0.011 C 
ATOM     19  C   UNL     1     -29.318  -3.082 -14.374  1.00  0.00    +0.184 C 
ATOM     20  C   UNL     1     -29.988  -2.426 -13.179  1.00  0.00    +0.078 C 
ATOM     21  C   UNL     1     -31.239  -0.399 -12.307  1.00  0.00    +0.059 C 
ATOM     22  O   UNL     1     -28.597  -4.201 -13.824  1.00  0.00    -0.462 OA
ATOM     23  C   UNL     1     -32.102  -1.302 -11.454  1.00  0.00    -0.023 C 
ATOM     24  C   UNL     1     -28.426  -5.306 -14.607  1.00  0.00    +0.316 C 
ATOM     25  C   UNL     1     -33.446  -1.417 -11.424  1.00  0.00    -0.048 C 
ATOM     26  O   UNL     1     -28.653  -5.352 -15.806  1.00  0.00    -0.251 OA
ATOM     27  C   UNL     1     -27.903  -6.439 -13.726  1.00  0.00    +0.161 C 
ATOM     28  C   UNL     1     -29.074  -7.248 -13.103  1.00  0.00    +0.134 C 
ATOM     29  C   UNL     1     -26.896  -7.301 -14.450  1.00  0.00    -0.007 C 
ATOM     30  C   UNL     1     -33.354  -3.656  -9.977  1.00  0.00    +0.042 C 
ATOM     31  C   UNL     1     -28.537  -8.448 -12.324  1.00  0.00    +0.188 C 
ATOM     32  C   UNL     1     -29.720  -6.521 -11.944  1.00  0.00    -0.009 C 
ATOM     33  C   UNL     1     -26.708  -8.599 -14.153  1.00  0.00    -0.045 C 
ATOM     34  C   UNL     1     -32.698  -4.538 -11.029  1.00  0.00    -0.021 C 
ATOM     35  O   UNL     1     -27.963  -7.864 -11.126  1.00  0.00    -0.367 OA
ATOM     36  C   UNL     1     -27.529  -9.312 -13.107  1.00  0.00    +0.172 C 
ATOM     37  C   UNL     1     -28.878  -6.812 -10.732  1.00  0.00    +0.195 C 
ATOM     38  C   UNL     1     -30.881  -5.845 -11.993  1.00  0.00    +0.004 C 
ATOM     39  C   UNL     1     -31.493  -5.120 -10.901  1.00  0.00    -0.004 C 
ATOM     40  C   UNL     1     -29.484   1.837 -18.610  1.00  0.00    +0.010 C 
ATOM     41  C   UNL     1     -34.347  -0.496 -12.216  1.00  0.00    +0.042 C 
ATOM     42  C   UNL     1     -34.175  -4.542  -9.036  1.00  0.00    +0.015 C 
ATOM     43  C   UNL     1     -25.698  -9.435 -14.891  1.00  0.00    +0.042 C 
BRANCH  12  44
ATOM     44  C   UNL     1     -31.834  -0.304 -17.877  1.00  0.00    +0.015 C 
ATOM     45  C   UNL     1     -31.604  -1.015 -19.221  1.00  0.00    +0.010 C 
BRANCH  44  46
ATOM     46  C   UNL     1     -32.769  -1.196 -17.025  1.00  0.00    +0.002 C 
ATOM     47  C   UNL     1     -32.837  -2.646 -17.485  1.00  0.00    +0.004 C 
ENDBRANCH  44  46
ENDBRANCH  12  44
BRANCH  28  48
ATOM     48  O   UNL     1     -30.026  -7.671 -14.072  1.00  0.00    -0.381 OA
ATOM     49  H   UNL     1     -29.650  -7.533 -14.959  1.00  0.00    +0.212 HD
ENDBRANCH  28  48
BRANCH  36  50
ATOM     50  O   UNL     1     -26.646  -9.955 -12.184  1.00  0.00    -0.386 OA
ATOM     51  H   UNL     1     -26.196 -10.649 -12.703  1.00  0.00    +0.211 HD
ENDBRANCH  36  50
ENDBRANCH   8   9
ENDBRANCH   2   8
BRANCH   4  52
ATOM     52  O   UNL     1     -35.576  -7.416 -11.213  1.00  0.00    -0.378 OA
ATOM     53  C   UNL     1     -36.594  -7.795 -10.292  1.00  0.00    +0.195 C 
ENDBRANCH   4  52
BRANCH   3  54
ATOM     54  O   UNL     1     -35.426  -7.698 -14.334  1.00  0.00    -0.344 OA
BRANCH  54  55
ATOM     55  C   UNL     1     -35.163  -9.002 -13.808  1.00  0.00    +0.253 C 
ATOM     56  O   UNL     1     -33.813  -9.037 -13.350  1.00  0.00    -0.347 OA
ATOM     57  C   UNL     1     -35.456  -9.993 -14.934  1.00  0.00    +0.097 C 
ATOM     58  C   UNL     1     -33.171 -10.312 -13.377  1.00  0.00    +0.149 C 
ATOM     59  C   UNL     1     -34.193 -10.288 -15.727  1.00  0.00    +0.154 C 
ATOM     60  C   UNL     1     -33.116 -10.894 -14.806  1.00  0.00    +0.172 C 
ATOM     61  C   UNL     1     -33.800 -11.264 -12.362  1.00  0.00    +0.041 C 
BRANCH  59  62
ATOM     62  O   UNL     1     -34.492 -11.254 -16.754  1.00  0.00    -0.378 OA
ATOM     63  C   UNL     1     -35.867 -11.613 -16.784  1.00  0.00    +0.195 C 
ENDBRANCH  59  62
BRANCH  60  64
ATOM     64  O   UNL     1     -31.833 -10.604 -15.397  1.00  0.00    -0.388 OA
ATOM     65  H   UNL     1     -31.739 -11.166 -16.184  1.00  0.00    +0.211 HD
ENDBRANCH  60  64
ENDBRANCH  54  55
ENDBRANCH   3  54
TORSDOF 11
ENDMDL
MODEL 6
REMARK VINA RESULT:    -8.328      2.498      8.040
REMARK INTER + INTRA:         -14.631
REMARK INTER:                 -12.066
REMARK INTRA:                  -2.565
REMARK UNBOUND:                -1.678
REMARK SMILES CC[C@H](C)[C@H]1O[C@]2(CC[C@@H]1C)C[C@@H]1C[C@@H](C/C=C(\C)[C@@H](O[C@H]3C[C@H](OC)[C@@H](O[C@H]4C[C@H](OC)[C@@H](O)[C@H](C)O4)[C@H](C)O3)[C@@H](C)/C=C/C=C3\CO[C@@H]4[C@H](O)C(C)=C[C@@H](C(=O)O1)[C@]34O)O2
REMARK SMILES IDX 41 1 22 2 27 3 24 4 23 5 39 6 40 7 21 8 20 9 6 10 7 11 5 12
REMARK SMILES IDX 62 13 8 14 12 15 10 16 15 17 9 18 13 19 14 20 16 21 59 22
REMARK SMILES IDX 17 23 57 24 18 25 58 26 56 27 60 28 55 29 42 30 50 31 47 32
REMARK SMILES IDX 53 33 44 34 49 35 51 36 48 37 46 38 45 39 11 40 19 41 43 42
REMARK SMILES IDX 54 43 3 44 4 45 2 46 1 47 61 48 52 50 25 52 26 53 28 54
REMARK SMILES IDX 29 55 38 56 30 57 36 58 31 59 34 60 37 61 32 62 33 63 35 64
REMARK H PARENT 61 49 52 51 35 65
ROOT
ATOM      1  O   UNL     1     -32.120  -1.777 -14.279  1.00  0.00    -0.347 OA
ATOM      2  C   UNL     1     -30.888  -1.590 -14.972  1.00  0.00    +0.253 C 
ATOM      3  C   UNL     1     -30.708  -2.466 -12.380  1.00  0.00    +0.179 C 
ATOM      4  C   UNL     1     -29.534  -1.577 -12.851  1.00  0.00    +0.154 C 
ATOM      5  C   UNL     1     -29.875  -0.814 -14.132  1.00  0.00    +0.097 C 
ATOM      6  C   UNL     1     -32.033  -1.848 -12.853  1.00  0.00    +0.150 C 
ATOM      7  C   UNL     1     -33.242  -2.645 -12.371  1.00  0.00    +0.041 C 
ENDROOT
BRANCH   2   8
ATOM      8  O   UNL     1     -31.141  -0.823 -16.149  1.00  0.00    -0.344 OA
BRANCH   8   9
ATOM      9  C   UNL     1     -31.171  -1.566 -17.381  1.00  0.00    +0.153 C 
ATOM     10  O   UNL     1     -34.314  -7.026 -13.922  1.00  0.00    -0.346 OA
ATOM     11  C   UNL     1     -34.097  -7.726 -15.154  1.00  0.00    +0.172 C 
ATOM     12  C   UNL     1     -35.694  -6.858 -13.588  1.00  0.00    +0.127 C 
ATOM     13  O   UNL     1     -34.176  -6.832 -16.275  1.00  0.00    -0.346 OA
ATOM     14  C   UNL     1     -35.164  -8.818 -15.384  1.00  0.00    +0.066 C 
ATOM     15  C   UNL     1     -32.699  -8.365 -15.085  1.00  0.00    +0.111 C 
ATOM     16  C   UNL     1     -36.287  -8.238 -13.200  1.00  0.00    +0.015 C 
ATOM     17  C   UNL     1     -33.230  -5.757 -16.228  1.00  0.00    +0.129 C 
ATOM     18  C   UNL     1     -35.690  -9.365 -14.065  1.00  0.00    +0.011 C 
ATOM     19  C   UNL     1     -31.626  -7.287 -15.024  1.00  0.00    +0.184 C 
ATOM     20  C   UNL     1     -31.817  -6.318 -16.178  1.00  0.00    +0.078 C 
ATOM     21  C   UNL     1     -33.444  -4.865 -17.471  1.00  0.00    +0.059 C 
ATOM     22  O   UNL     1     -30.312  -7.844 -15.222  1.00  0.00    -0.462 OA
ATOM     23  C   UNL     1     -32.371  -3.813 -17.635  1.00  0.00    -0.023 C 
ATOM     24  C   UNL     1     -29.601  -8.225 -14.122  1.00  0.00    +0.316 C 
ATOM     25  C   UNL     1     -32.394  -2.510 -17.283  1.00  0.00    -0.048 C 
ATOM     26  O   UNL     1     -30.061  -8.327 -12.995  1.00  0.00    -0.251 OA
ATOM     27  C   UNL     1     -28.162  -8.502 -14.556  1.00  0.00    +0.161 C 
ATOM     28  C   UNL     1     -27.298  -7.213 -14.480  1.00  0.00    +0.134 C 
ATOM     29  C   UNL     1     -27.562  -9.672 -13.813  1.00  0.00    -0.007 C 
ATOM     30  C   UNL     1     -29.767  -2.228 -17.652  1.00  0.00    +0.042 C 
ATOM     31  C   UNL     1     -25.839  -7.531 -14.802  1.00  0.00    +0.188 C 
ATOM     32  C   UNL     1     -27.565  -6.276 -15.639  1.00  0.00    -0.009 C 
ATOM     33  C   UNL     1     -26.241  -9.783 -13.584  1.00  0.00    -0.045 C 
ATOM     34  C   UNL     1     -29.315  -3.148 -16.527  1.00  0.00    -0.021 C 
ATOM     35  O   UNL     1     -25.833  -7.760 -16.235  1.00  0.00    -0.367 OA
ATOM     36  C   UNL     1     -25.259  -8.718 -14.007  1.00  0.00    +0.172 C 
ATOM     37  C   UNL     1     -26.729  -6.766 -16.788  1.00  0.00    +0.195 C 
ATOM     38  C   UNL     1     -28.321  -5.166 -15.589  1.00  0.00    +0.004 C 
ATOM     39  C   UNL     1     -28.609  -4.279 -16.695  1.00  0.00    -0.004 C 
ATOM     40  C   UNL     1     -37.816  -8.223 -13.296  1.00  0.00    +0.010 C 
ATOM     41  C   UNL     1     -33.642  -1.847 -16.746  1.00  0.00    +0.042 C 
ATOM     42  C   UNL     1     -28.669  -1.193 -17.909  1.00  0.00    +0.015 C 
ATOM     43  C   UNL     1     -25.669 -10.959 -12.841  1.00  0.00    +0.042 C 
BRANCH  12  44
ATOM     44  C   UNL     1     -35.816  -5.778 -12.478  1.00  0.00    +0.015 C 
ATOM     45  C   UNL     1     -36.965  -4.789 -12.736  1.00  0.00    +0.010 C 
BRANCH  44  46
ATOM     46  C   UNL     1     -36.030  -6.394 -11.074  1.00  0.00    +0.002 C 
ATOM     47  C   UNL     1     -37.206  -5.805 -10.307  1.00  0.00    +0.004 C 
ENDBRANCH  44  46
ENDBRANCH  12  44
BRANCH  28  48
ATOM     48  O   UNL     1     -27.399  -6.558 -13.223  1.00  0.00    -0.381 OA
ATOM     49  H   UNL     1     -27.926  -7.113 -12.623  1.00  0.00    +0.212 HD
ENDBRANCH  28  48
BRANCH  36  50
ATOM     50  O   UNL     1     -24.213  -9.327 -14.768  1.00  0.00    -0.386 OA
ATOM     51  H   UNL     1     -24.645  -9.641 -15.587  1.00  0.00    +0.211 HD
ENDBRANCH  36  50
ENDBRANCH   8   9
ENDBRANCH   2   8
BRANCH   4  52
ATOM     52  O   UNL     1     -28.397  -2.435 -13.076  1.00  0.00    -0.378 OA
ATOM     53  C   UNL     1     -27.321  -1.775 -13.735  1.00  0.00    +0.195 C 
ENDBRANCH   4  52
BRANCH   3  54
ATOM     54  O   UNL     1     -30.699  -2.534 -10.946  1.00  0.00    -0.344 OA
BRANCH  54  55
ATOM     55  C   UNL     1     -30.167  -3.767 -10.450  1.00  0.00    +0.253 C 
ATOM     56  O   UNL     1     -30.038  -4.672 -11.544  1.00  0.00    -0.347 OA
ATOM     57  C   UNL     1     -31.127  -4.248  -9.363  1.00  0.00    +0.097 C 
ATOM     58  C   UNL     1     -30.134  -6.061 -11.228  1.00  0.00    +0.149 C 
ATOM     59  C   UNL     1     -32.175  -5.180  -9.951  1.00  0.00    +0.154 C 
ATOM     60  C   UNL     1     -31.496  -6.408 -10.588  1.00  0.00    +0.172 C 
ATOM     61  C   UNL     1     -28.941  -6.516 -10.389  1.00  0.00    +0.041 C 
BRANCH  59  62
ATOM     62  O   UNL     1     -33.038  -5.648  -8.897  1.00  0.00    -0.378 OA
ATOM     63  C   UNL     1     -33.979  -4.666  -8.483  1.00  0.00    +0.195 C 
ENDBRANCH  59  62
BRANCH  60  64
ATOM     64  O   UNL     1     -32.390  -6.916 -11.600  1.00  0.00    -0.388 OA
ATOM     65  H   UNL     1     -33.121  -6.283 -11.689  1.00  0.00    +0.211 HD
ENDBRANCH  60  64
ENDBRANCH  54  55
ENDBRANCH   3  54
TORSDOF 11
ENDMDL
MODEL 7
REMARK VINA RESULT:    -8.308      2.355      6.948
REMARK INTER + INTRA:         -14.601
REMARK INTER:                 -13.005
REMARK INTRA:                  -1.596
REMARK UNBOUND:                -1.678
REMARK SMILES CC[C@H](C)[C@H]1O[C@]2(CC[C@@H]1C)C[C@@H]1C[C@@H](C/C=C(\C)[C@@H](O[C@H]3C[C@H](OC)[C@@H](O[C@H]4C[C@H](OC)[C@@H](O)[C@H](C)O4)[C@H](C)O3)[C@@H](C)/C=C/C=C3\CO[C@@H]4[C@H](O)C(C)=C[C@@H](C(=O)O1)[C@]34O)O2
REMARK SMILES IDX 41 1 22 2 27 3 24 4 23 5 39 6 40 7 21 8 20 9 6 10 7 11 5 12
REMARK SMILES IDX 62 13 8 14 12 15 10 16 15 17 9 18 13 19 14 20 16 21 59 22
REMARK SMILES IDX 17 23 57 24 18 25 58 26 56 27 60 28 55 29 42 30 50 31 47 32
REMARK SMILES IDX 53 33 44 34 49 35 51 36 48 37 46 38 45 39 11 40 19 41 43 42
REMARK SMILES IDX 54 43 3 44 4 45 2 46 1 47 61 48 52 50 25 52 26 53 28 54
REMARK SMILES IDX 29 55 38 56 30 57 36 58 31 59 34 60 37 61 32 62 33 63 35 64
REMARK H PARENT 61 49 52 51 35 65
ROOT
ATOM      1  O   UNL     1     -29.863  -6.832 -11.846  1.00  0.00    -0.347 OA
ATOM      2  C   UNL     1     -28.482  -6.853 -11.490  1.00  0.00    +0.253 C 
ATOM      3  C   UNL     1     -29.059  -7.146 -14.154  1.00  0.00    +0.179 C 
ATOM      4  C   UNL     1     -27.789  -7.888 -13.677  1.00  0.00    +0.154 C 
ATOM      5  C   UNL     1     -27.741  -8.013 -12.153  1.00  0.00    +0.097 C 
ATOM      6  C   UNL     1     -30.187  -7.364 -13.134  1.00  0.00    +0.150 C 
ATOM      7  C   UNL     1     -31.493  -6.707 -13.573  1.00  0.00    +0.041 C 
ENDROOT
BRANCH   2   8
ATOM      8  O   UNL     1     -28.380  -7.035 -10.078  1.00  0.00    -0.344 OA
BRANCH   8   9
ATOM      9  C   UNL     1     -28.693  -5.880  -9.279  1.00  0.00    +0.153 C 
ATOM     10  O   UNL     1     -35.090  -5.458 -12.527  1.00  0.00    -0.346 OA
ATOM     11  C   UNL     1     -35.190  -4.212 -11.823  1.00  0.00    +0.172 C 
ATOM     12  C   UNL     1     -36.069  -6.423 -12.134  1.00  0.00    +0.127 C 
ATOM     13  O   UNL     1     -34.503  -4.276 -10.563  1.00  0.00    -0.346 OA
ATOM     14  C   UNL     1     -36.658  -3.852 -11.508  1.00  0.00    +0.066 C 
ATOM     15  C   UNL     1     -34.562  -3.125 -12.712  1.00  0.00    +0.111 C 
ATOM     16  C   UNL     1     -37.460  -5.960 -12.639  1.00  0.00    +0.015 C 
ATOM     17  C   UNL     1     -33.108  -4.587 -10.677  1.00  0.00    +0.129 C 
ATOM     18  C   UNL     1     -37.605  -4.428 -12.550  1.00  0.00    +0.011 C 
ATOM     19  C   UNL     1     -33.072  -3.383 -12.894  1.00  0.00    +0.184 C 
ATOM     20  C   UNL     1     -32.417  -3.535 -11.532  1.00  0.00    +0.078 C 
ATOM     21  C   UNL     1     -32.507  -4.650  -9.256  1.00  0.00    +0.059 C 
ATOM     22  O   UNL     1     -32.414  -2.252 -13.496  1.00  0.00    -0.462 OA
ATOM     23  C   UNL     1     -31.000  -4.771  -9.258  1.00  0.00    -0.023 C 
ATOM     24  C   UNL     1     -32.293  -2.225 -14.855  1.00  0.00    +0.316 C 
ATOM     25  C   UNL     1     -30.233  -5.873  -9.119  1.00  0.00    -0.048 C 
ATOM     26  O   UNL     1     -32.875  -2.976 -15.621  1.00  0.00    -0.251 OA
ATOM     27  C   UNL     1     -31.325  -1.102 -15.226  1.00  0.00    +0.161 C 
ATOM     28  C   UNL     1     -29.860  -1.616 -15.257  1.00  0.00    +0.134 C 
ATOM     29  C   UNL     1     -31.740  -0.392 -16.493  1.00  0.00    -0.007 C 
ATOM     30  C   UNL     1     -28.024  -4.594  -9.894  1.00  0.00    +0.042 C 
ATOM     31  C   UNL     1     -28.920  -0.514 -15.745  1.00  0.00    +0.188 C 
ATOM     32  C   UNL     1     -29.281  -1.781 -13.868  1.00  0.00    -0.009 C 
ATOM     33  C   UNL     1     -30.856   0.207 -17.309  1.00  0.00    -0.045 C 
ATOM     34  C   UNL     1     -28.447  -4.333 -11.332  1.00  0.00    -0.021 C 
ATOM     35  O   UNL     1     -28.844   0.408 -14.627  1.00  0.00    -0.367 OA
ATOM     36  C   UNL     1     -29.369   0.170 -17.051  1.00  0.00    +0.172 C 
ATOM     37  C   UNL     1     -28.793  -0.424 -13.442  1.00  0.00    +0.195 C 
ATOM     38  C   UNL     1     -29.141  -2.946 -13.212  1.00  0.00    +0.004 C 
ATOM     39  C   UNL     1     -28.618  -3.115 -11.874  1.00  0.00    -0.004 C 
ATOM     40  C   UNL     1     -38.583  -6.664 -11.872  1.00  0.00    +0.010 C 
ATOM     41  C   UNL     1     -30.825  -7.225  -8.794  1.00  0.00    +0.042 C 
ATOM     42  C   UNL     1     -26.495  -4.641  -9.834  1.00  0.00    +0.015 C 
ATOM     43  C   UNL     1     -31.296   0.907 -18.566  1.00  0.00    +0.042 C 
BRANCH  12  44
ATOM     44  C   UNL     1     -35.634  -7.821 -12.655  1.00  0.00    +0.015 C 
ATOM     45  C   UNL     1     -35.310  -7.820 -14.158  1.00  0.00    +0.010 C 
BRANCH  44  46
ATOM     46  C   UNL     1     -34.397  -8.372 -11.905  1.00  0.00    +0.002 C 
ATOM     47  C   UNL     1     -33.742  -9.569 -12.580  1.00  0.00    +0.004 C 
ENDBRANCH  44  46
ENDBRANCH  12  44
BRANCH  28  48
ATOM     48  O   UNL     1     -29.705  -2.787 -16.048  1.00  0.00    -0.381 OA
ATOM     49  H   UNL     1     -28.887  -3.240 -15.779  1.00  0.00    +0.212 HD
ENDBRANCH  28  48
BRANCH  36  50
ATOM     50  O   UNL     1     -28.860   1.505 -17.081  1.00  0.00    -0.386 OA
ATOM     51  H   UNL     1     -29.092   1.885 -16.211  1.00  0.00    +0.211 HD
ENDBRANCH  36  50
ENDBRANCH   8   9
ENDBRANCH   2   8
BRANCH   4  52
ATOM     52  O   UNL     1     -26.646  -7.144 -14.146  1.00  0.00    -0.378 OA
ATOM     53  C   UNL     1     -25.745  -7.933 -14.917  1.00  0.00    +0.195 C 
ENDBRANCH   4  52
BRANCH   3  54
ATOM     54  O   UNL     1     -29.460  -7.676 -15.428  1.00  0.00    -0.344 OA
BRANCH  54  55
ATOM     55  C   UNL     1     -29.812  -6.657 -16.369  1.00  0.00    +0.253 C 
ATOM     56  O   UNL     1     -31.097  -6.966 -16.904  1.00  0.00    -0.347 OA
ATOM     57  C   UNL     1     -28.700  -6.629 -17.416  1.00  0.00    +0.097 C 
ATOM     58  C   UNL     1     -31.360  -6.493 -18.225  1.00  0.00    +0.149 C 
ATOM     59  C   UNL     1     -29.046  -7.535 -18.586  1.00  0.00    +0.154 C 
ATOM     60  C   UNL     1     -30.358  -7.071 -19.248  1.00  0.00    +0.172 C 
ATOM     61  C   UNL     1     -31.440  -4.968 -18.256  1.00  0.00    +0.041 C 
BRANCH  59  62
ATOM     62  O   UNL     1     -28.000  -7.457 -19.574  1.00  0.00    -0.378 OA
ATOM     63  C   UNL     1     -26.705  -7.639 -19.016  1.00  0.00    +0.195 C 
ENDBRANCH  59  62
BRANCH  60  64
ATOM     64  O   UNL     1     -30.940  -8.219 -19.900  1.00  0.00    -0.388 OA
ATOM     65  H   UNL     1     -30.220  -8.712 -20.324  1.00  0.00    +0.211 HD
ENDBRANCH  60  64
ENDBRANCH  54  55
ENDBRANCH   3  54
TORSDOF 11
ENDMDL
MODEL 8
REMARK VINA RESULT:    -8.251      3.123      8.352
REMARK INTER + INTRA:         -14.512
REMARK INTER:                 -14.654
REMARK INTRA:                   0.142
REMARK UNBOUND:                -1.678
REMARK SMILES CC[C@H](C)[C@H]1O[C@]2(CC[C@@H]1C)C[C@@H]1C[C@@H](C/C=C(\C)[C@@H](O[C@H]3C[C@H](OC)[C@@H](O[C@H]4C[C@H](OC)[C@@H](O)[C@H](C)O4)[C@H](C)O3)[C@@H](C)/C=C/C=C3\CO[C@@H]4[C@H](O)C(C)=C[C@@H](C(=O)O1)[C@]34O)O2
REMARK SMILES IDX 41 1 22 2 27 3 24 4 23 5 39 6 40 7 21 8 20 9 6 10 7 11 5 12
REMARK SMILES IDX 62 13 8 14 12 15 10 16 15 17 9 18 13 19 14 20 16 21 59 22
REMARK SMILES IDX 17 23 57 24 18 25 58 26 56 27 60 28 55 29 42 30 50 31 47 32
REMARK SMILES IDX 53 33 44 34 49 35 51 36 48 37 46 38 45 39 11 40 19 41 43 42
REMARK SMILES IDX 54 43 3 44 4 45 2 46 1 47 61 48 52 50 25 52 26 53 28 54
REMARK SMILES IDX 29 55 38 56 30 57 36 58 31 59 34 60 37 61 32 62 33 63 35 64
REMARK H PARENT 61 49 52 51 35 65
ROOT
ATOM      1  O   UNL     1     -34.750  -3.363 -12.275  1.00  0.00    -0.347 OA
ATOM      2  C   UNL     1     -34.436  -3.312 -10.885  1.00  0.00    +0.253 C 
ATOM      3  C   UNL     1     -36.410  -5.065 -11.624  1.00  0.00    +0.179 C 
ATOM      4  C   UNL     1     -36.576  -4.453 -10.214  1.00  0.00    +0.154 C 
ATOM      5  C   UNL     1     -35.692  -3.221 -10.020  1.00  0.00    +0.097 C 
ATOM      6  C   UNL     1     -36.007  -3.960 -12.611  1.00  0.00    +0.150 C 
ATOM      7  C   UNL     1     -35.883  -4.484 -14.041  1.00  0.00    +0.041 C 
ENDROOT
BRANCH   2   8
ATOM      8  O   UNL     1     -33.662  -2.139 -10.638  1.00  0.00    -0.344 OA
BRANCH   8   9
ATOM      9  C   UNL     1     -32.301  -2.366 -10.231  1.00  0.00    +0.153 C 
ATOM     10  O   UNL     1     -30.184  -1.356 -17.024  1.00  0.00    -0.346 OA
ATOM     11  C   UNL     1     -28.913  -1.799 -16.529  1.00  0.00    +0.172 C 
ATOM     12  C   UNL     1     -30.181  -0.007 -17.497  1.00  0.00    +0.127 C 
ATOM     13  O   UNL     1     -28.729  -1.406 -15.160  1.00  0.00    -0.346 OA
ATOM     14  C   UNL     1     -27.744  -1.183 -17.328  1.00  0.00    +0.066 C 
ATOM     15  C   UNL     1     -28.878  -3.333 -16.647  1.00  0.00    +0.111 C 
ATOM     16  C   UNL     1     -29.361   0.062 -18.812  1.00  0.00    +0.015 C 
ATOM     17  C   UNL     1     -29.730  -1.915 -14.270  1.00  0.00    +0.129 C 
ATOM     18  C   UNL     1     -28.149  -0.889 -18.764  1.00  0.00    +0.011 C 
ATOM     19  C   UNL     1     -29.922  -3.960 -15.734  1.00  0.00    +0.184 C 
ATOM     20  C   UNL     1     -29.737  -3.436 -14.321  1.00  0.00    +0.078 C 
ATOM     21  C   UNL     1     -29.426  -1.395 -12.847  1.00  0.00    +0.059 C 
ATOM     22  O   UNL     1     -29.738  -5.384 -15.626  1.00  0.00    -0.462 OA
ATOM     23  C   UNL     1     -30.297  -2.029 -11.788  1.00  0.00    -0.023 C 
ATOM     24  C   UNL     1     -30.415  -6.190 -16.495  1.00  0.00    +0.316 C 
ATOM     25  C   UNL     1     -31.420  -1.552 -11.209  1.00  0.00    -0.048 C 
ATOM     26  O   UNL     1     -31.007  -5.800 -17.489  1.00  0.00    -0.251 OA
ATOM     27  C   UNL     1     -30.290  -7.632 -16.006  1.00  0.00    +0.161 C 
ATOM     28  C   UNL     1     -31.435  -7.989 -15.018  1.00  0.00    +0.134 C 
ATOM     29  C   UNL     1     -30.157  -8.609 -17.150  1.00  0.00    -0.007 C 
ATOM     30  C   UNL     1     -32.017  -3.911 -10.116  1.00  0.00    +0.042 C 
ATOM     31  C   UNL     1     -31.363  -9.465 -14.632  1.00  0.00    +0.188 C 
ATOM     32  C   UNL     1     -31.206  -7.404 -13.641  1.00  0.00    -0.009 C 
ATOM     33  C   UNL     1     -30.571  -9.886 -17.063  1.00  0.00    -0.045 C 
ATOM     34  C   UNL     1     -32.281  -4.662 -11.412  1.00  0.00    -0.021 C 
ATOM     35  O   UNL     1     -30.222  -9.544 -13.740  1.00  0.00    -0.367 OA
ATOM     36  C   UNL     1     -31.251 -10.429 -15.830  1.00  0.00    +0.172 C 
ATOM     37  C   UNL     1     -30.291  -8.354 -12.918  1.00  0.00    +0.195 C 
ATOM     38  C   UNL     1     -31.805  -6.307 -13.147  1.00  0.00    +0.004 C 
ATOM     39  C   UNL     1     -31.573  -5.720 -11.845  1.00  0.00    -0.004 C 
ATOM     40  C   UNL     1     -28.922   1.498 -19.108  1.00  0.00    +0.010 C 
ATOM     41  C   UNL     1     -31.926  -0.153 -11.477  1.00  0.00    +0.042 C 
ATOM     42  C   UNL     1     -32.819  -4.574  -8.993  1.00  0.00    +0.015 C 
ATOM     43  C   UNL     1     -30.428 -10.837 -18.219  1.00  0.00    +0.042 C 
BRANCH  12  44
ATOM     44  C   UNL     1     -31.650   0.481 -17.635  1.00  0.00    +0.015 C 
ATOM     45  C   UNL     1     -31.752   1.895 -18.230  1.00  0.00    +0.010 C 
BRANCH  44  46
ATOM     46  C   UNL     1     -32.506  -0.464 -18.514  1.00  0.00    +0.002 C 
ATOM     47  C   UNL     1     -32.957  -1.735 -17.807  1.00  0.00    +0.004 C 
ENDBRANCH  44  46
ENDBRANCH  12  44
BRANCH  28  48
ATOM     48  O   UNL     1     -32.721  -7.671 -15.532  1.00  0.00    -0.381 OA
ATOM     49  H   UNL     1     -33.265  -8.478 -15.535  1.00  0.00    +0.212 HD
ENDBRANCH  28  48
BRANCH  36  50
ATOM     50  O   UNL     1     -30.575 -11.618 -15.414  1.00  0.00    -0.386 OA
ATOM     51  H   UNL     1     -31.169 -12.350 -15.668  1.00  0.00    +0.211 HD
ENDBRANCH  36  50
ENDBRANCH   8   9
ENDBRANCH   2   8
BRANCH   4  52
ATOM     52  O   UNL     1     -36.223  -5.469  -9.252  1.00  0.00    -0.378 OA
ATOM     53  C   UNL     1     -37.356  -6.125  -8.692  1.00  0.00    +0.195 C 
ENDBRANCH   4  52
BRANCH   3  54
ATOM     54  O   UNL     1     -37.660  -5.639 -12.036  1.00  0.00    -0.344 OA
BRANCH  54  55
ATOM     55  C   UNL     1     -37.610  -7.065 -12.143  1.00  0.00    +0.253 C 
ATOM     56  O   UNL     1     -36.250  -7.454 -12.325  1.00  0.00    -0.347 OA
ATOM     57  C   UNL     1     -38.520  -7.446 -13.310  1.00  0.00    +0.097 C 
ATOM     58  C   UNL     1     -36.032  -8.666 -13.046  1.00  0.00    +0.149 C 
ATOM     59  C   UNL     1     -37.723  -7.530 -14.602  1.00  0.00    +0.154 C 
ATOM     60  C   UNL     1     -36.615  -8.594 -14.475  1.00  0.00    +0.172 C 
ATOM     61  C   UNL     1     -36.529  -9.874 -12.253  1.00  0.00    +0.041 C 
BRANCH  59  62
ATOM     62  O   UNL     1     -38.598  -7.930 -15.675  1.00  0.00    -0.378 OA
ATOM     63  C   UNL     1     -39.802  -7.175 -15.709  1.00  0.00    +0.195 C 
ENDBRANCH  59  62
BRANCH  60  64
ATOM     64  O   UNL     1     -35.571  -8.241 -15.405  1.00  0.00    -0.388 OA
ATOM     65  H   UNL     1     -34.723  -8.488 -15.001  1.00  0.00    +0.211 HD
ENDBRANCH  60  64
ENDBRANCH  54  55
ENDBRANCH   3  54
TORSDOF 11
ENDMDL
