MODEL 1
REMARK VINA RESULT:     1.220      0.000      0.000
REMARK INTER + INTRA:           3.483
REMARK INTER:                   1.898
REMARK INTRA:                   1.585
REMARK UNBOUND:                 1.585
REMARK SMILES CC[C@H](C)[C@H]1O[C@]2(CC[C@@H]1C)C[C@@H]1C[C@@H](C/C=C(\C)[C@@H](O[C@H]3C[C@H](OC)[C@@H](O[C@H]4C[C@H](OC)[C@@H](O)[C@H](C)O4)[C@H](C)O3)[C@@H](C)/C=C/C=C3\CO[C@@H]4[C@H](O)C(C)=C[C@@H](C(=O)O1)[C@]34O)O2
REMARK SMILES IDX 41 1 22 2 27 3 24 4 23 5 39 6 40 7 21 8 20 9 6 10 7 11 5 12
REMARK SMILES IDX 62 13 8 14 12 15 10 16 15 17 9 18 13 19 14 20 16 21 59 22
REMARK SMILES IDX 17 23 57 24 18 25 58 26 56 27 60 28 55 29 42 30 50 31 47 32
REMARK SMILES IDX 53 33 44 34 49 35 51 36 48 37 46 38 45 39 11 40 19 41 43 42
REMARK SMILES IDX 54 43 3 44 4 45 2 46 1 47 61 48 52 50 25 52 26 53 28 54
REMARK SMILES IDX 29 55 38 56 30 57 36 58 31 59 34 60 37 61 32 62 33 63 35 64
REMARK H PARENT 61 49 52 51 35 65
ROOT
ATOM      1  O   UNL     1      19.289  71.856  46.064  1.00  0.00    -0.347 OA
ATOM      2  C   UNL     1      20.575  71.267  46.250  1.00  0.00    +0.253 C 
ATOM      3  C   UNL     1      20.230  73.786  47.276  1.00  0.00    +0.179 C 
ATOM      4  C   UNL     1      21.664  73.470  46.791  1.00  0.00    +0.154 C 
ATOM      5  C   UNL     1      21.702  72.234  45.891  1.00  0.00    +0.097 C 
ATOM      6  C   UNL     1      19.220  73.275  46.237  1.00  0.00    +0.150 C 
ATOM      7  C   UNL     1      17.781  73.608  46.624  1.00  0.00    +0.041 C 
ENDROOT
BRANCH   2   8
ATOM      8  O   UNL     1      20.687  70.141  45.380  1.00  0.00    -0.344 OA
BRANCH   8   9
ATOM      9  C   UNL     1      20.661  68.854  46.022  1.00  0.00    +0.153 C 
ATOM     10  O   UNL     1      15.318  66.863  41.648  1.00  0.00    -0.346 OA
ATOM     11  C   UNL     1      15.260  65.711  42.498  1.00  0.00    +0.172 C 
ATOM     12  C   UNL     1      15.678  66.566  40.297  1.00  0.00    +0.127 C 
ATOM     13  O   UNL     1      16.563  65.379  43.005  1.00  0.00    -0.346 OA
ATOM     14  C   UNL     1      14.751  64.467  41.739  1.00  0.00    +0.066 C 
ATOM     15  C   UNL     1      14.310  66.041  43.663  1.00  0.00    +0.111 C 
ATOM     16  C   UNL     1      14.504  65.812  39.619  1.00  0.00    +0.015 C 
ATOM     17  C   UNL     1      17.178  66.431  43.759  1.00  0.00    +0.129 C 
ATOM     18  C   UNL     1      13.811  64.855  40.608  1.00  0.00    +0.011 C 
ATOM     19  C   UNL     1      14.886  67.161  44.517  1.00  0.00    +0.184 C 
ATOM     20  C   UNL     1      16.297  66.796  44.944  1.00  0.00    +0.078 C 
ATOM     21  C   UNL     1      18.574  65.950  44.214  1.00  0.00    +0.059 C 
ATOM     22  O   UNL     1      14.154  67.310  45.749  1.00  0.00    -0.462 OA
ATOM     23  C   UNL     1      19.236  66.898  45.188  1.00  0.00    -0.023 C 
ATOM     24  C   UNL     1      13.116  68.196  45.779  1.00  0.00    +0.316 C 
ATOM     25  C   UNL     1      20.163  67.851  44.953  1.00  0.00    -0.048 C 
ATOM     26  O   UNL     1      12.621  68.723  44.796  1.00  0.00    -0.251 OA
ATOM     27  C   UNL     1      12.696  68.389  47.236  1.00  0.00    +0.161 C 
ATOM     28  C   UNL     1      13.499  69.541  47.900  1.00  0.00    +0.134 C 
ATOM     29  C   UNL     1      11.200  68.540  47.379  1.00  0.00    -0.007 C 
ATOM     30  C   UNL     1      19.852  68.934  47.371  1.00  0.00    +0.042 C 
ATOM     31  C   UNL     1      12.985  69.800  49.316  1.00  0.00    +0.188 C 
ATOM     32  C   UNL     1      14.907  69.121  48.265  1.00  0.00    -0.009 C 
ATOM     33  C   UNL     1      10.635  69.236  48.381  1.00  0.00    -0.045 C 
ATOM     34  C   UNL     1      18.424  69.424  47.180  1.00  0.00    -0.021 C 
ATOM     35  O   UNL     1      13.475  68.670  50.084  1.00  0.00    -0.367 OA
ATOM     36  C   UNL     1      11.456  69.970  49.414  1.00  0.00    +0.172 C 
ATOM     37  C   UNL     1      14.815  68.422  49.594  1.00  0.00    +0.195 C 
ATOM     38  C   UNL     1      16.018  69.424  47.574  1.00  0.00    +0.004 C 
ATOM     39  C   UNL     1      17.365  69.004  47.894  1.00  0.00    -0.004 C 
ATOM     40  C   UNL     1      14.982  65.062  38.372  1.00  0.00    +0.010 C 
ATOM     41  C   UNL     1      20.804  68.028  43.596  1.00  0.00    +0.042 C 
ATOM     42  C   UNL     1      20.538  69.819  48.416  1.00  0.00    +0.015 C 
ATOM     43  C   UNL     1       9.142  69.372  48.499  1.00  0.00    +0.042 C 
BRANCH  12  44
ATOM     44  C   UNL     1      16.086  67.884  39.582  1.00  0.00    +0.015 C 
ATOM     45  C   UNL     1      17.434  68.434  40.076  1.00  0.00    +0.010 C 
BRANCH  44  46
ATOM     46  C   UNL     1      16.178  67.719  38.045  1.00  0.00    +0.002 C 
ATOM     47  C   UNL     1      17.601  67.673  37.507  1.00  0.00    +0.004 C 
ENDBRANCH  44  46
ENDBRANCH  12  44
BRANCH  28  48
ATOM     48  O   UNL     1      13.476  70.739  47.135  1.00  0.00    -0.381 OA
ATOM     49  H   UNL     1      12.980  71.415  47.630  1.00  0.00    +0.212 HD
ENDBRANCH  28  48
BRANCH  36  50
ATOM     50  O   UNL     1      11.023  69.573  50.717  1.00  0.00    -0.386 OA
ATOM     51  H   UNL     1      11.845  69.398  51.216  1.00  0.00    +0.211 HD
ENDBRANCH  36  50
ENDBRANCH   8   9
ENDBRANCH   2   8
BRANCH   4  52
ATOM     52  O   UNL     1      22.483  73.254  47.958  1.00  0.00    -0.378 OA
ATOM     53  C   UNL     1      23.697  73.999  47.933  1.00  0.00    +0.195 C 
ENDBRANCH   4  52
BRANCH   3  54
ATOM     54  O   UNL     1      20.087  75.207  47.421  1.00  0.00    -0.344 OA
BRANCH  54  55
ATOM     55  C   UNL     1      19.790  75.604  48.763  1.00  0.00    +0.253 C 
ATOM     56  O   UNL     1      20.883  76.377  49.255  1.00  0.00    -0.347 OA
ATOM     57  C   UNL     1      19.542  74.319  49.552  1.00  0.00    +0.097 C 
ATOM     58  C   UNL     1      21.095  76.342  50.666  1.00  0.00    +0.149 C 
ATOM     59  C   UNL     1      20.828  73.835  50.203  1.00  0.00    +0.154 C 
ATOM     60  C   UNL     1      21.371  74.908  51.167  1.00  0.00    +0.172 C 
ATOM     61  C   UNL     1      19.952  77.031  51.410  1.00  0.00    +0.041 C 
BRANCH  59  62
ATOM     62  O   UNL     1      20.555  72.648  50.970  1.00  0.00    -0.378 OA
ATOM     63  C   UNL     1      20.124  72.938  52.294  1.00  0.00    +0.195 C 
ENDBRANCH  59  62
BRANCH  60  64
ATOM     64  O   UNL     1      22.794  74.702  51.282  1.00  0.00    -0.388 OA
ATOM     65  H   UNL     1      23.168  75.480  51.726  1.00  0.00    +0.211 HD
ENDBRANCH  60  64
ENDBRANCH  54  55
ENDBRANCH   3  54
TORSDOF 11
ENDMDL
MODEL 2
REMARK VINA RESULT:     1.360      1.089      1.802
REMARK INTER + INTRA:           3.700
REMARK INTER:                  -2.763
REMARK INTRA:                   6.463
REMARK UNBOUND:                 1.585
REMARK SMILES CC[C@H](C)[C@H]1O[C@]2(CC[C@@H]1C)C[C@@H]1C[C@@H](C/C=C(\C)[C@@H](O[C@H]3C[C@H](OC)[C@@H](O[C@H]4C[C@H](OC)[C@@H](O)[C@H](C)O4)[C@H](C)O3)[C@@H](C)/C=C/C=C3\CO[C@@H]4[C@H](O)C(C)=C[C@@H](C(=O)O1)[C@]34O)O2
REMARK SMILES IDX 41 1 22 2 27 3 24 4 23 5 39 6 40 7 21 8 20 9 6 10 7 11 5 12
REMARK SMILES IDX 62 13 8 14 12 15 10 16 15 17 9 18 13 19 14 20 16 21 59 22
REMARK SMILES IDX 17 23 57 24 18 25 58 26 56 27 60 28 55 29 42 30 50 31 47 32
REMARK SMILES IDX 53 33 44 34 49 35 51 36 48 37 46 38 45 39 11 40 19 41 43 42
REMARK SMILES IDX 54 43 3 44 4 45 2 46 1 47 61 48 52 50 25 52 26 53 28 54
REMARK SMILES IDX 29 55 38 56 30 57 36 58 31 59 34 60 37 61 32 62 33 63 35 64
REMARK H PARENT 61 49 52 51 35 65
ROOT
ATOM      1  O   UNL     1      21.863  72.243  46.464  1.00  0.00    -0.347 OA
ATOM      2  C   UNL     1      20.629  72.418  45.769  1.00  0.00    +0.253 C 
ATOM      3  C   UNL     1      21.203  74.261  47.717  1.00  0.00    +0.179 C 
ATOM      4  C   UNL     1      19.698  73.965  47.522  1.00  0.00    +0.154 C 
ATOM      5  C   UNL     1      19.468  72.679  46.727  1.00  0.00    +0.097 C 
ATOM      6  C   UNL     1      21.984  72.939  47.709  1.00  0.00    +0.150 C 
ATOM      7  C   UNL     1      23.476  73.152  47.956  1.00  0.00    +0.041 C 
ENDROOT
BRANCH   2   8
ATOM      8  O   UNL     1      20.334  71.216  45.060  1.00  0.00    -0.344 OA
BRANCH   8   9
ATOM      9  C   UNL     1      20.609  69.993  45.767  1.00  0.00    +0.153 C 
ATOM     10  O   UNL     1      15.621  66.669  41.801  1.00  0.00    -0.346 OA
ATOM     11  C   UNL     1      15.845  65.584  42.712  1.00  0.00    +0.172 C 
ATOM     12  C   UNL     1      15.977  66.371  40.449  1.00  0.00    +0.127 C 
ATOM     13  O   UNL     1      17.209  65.562  43.161  1.00  0.00    -0.346 OA
ATOM     14  C   UNL     1      15.577  64.217  42.046  1.00  0.00    +0.066 C 
ATOM     15  C   UNL     1      14.898  65.779  43.908  1.00  0.00    +0.111 C 
ATOM     16  C   UNL     1      14.960  65.349  39.877  1.00  0.00    +0.015 C 
ATOM     17  C   UNL     1      17.621  66.763  43.826  1.00  0.00    +0.129 C 
ATOM     18  C   UNL     1      14.528  64.331  40.950  1.00  0.00    +0.011 C 
ATOM     19  C   UNL     1      15.261  67.045  44.672  1.00  0.00    +0.184 C 
ATOM     20  C   UNL     1      16.735  67.009  45.038  1.00  0.00    +0.078 C 
ATOM     21  C   UNL     1      19.105  66.613  44.227  1.00  0.00    +0.059 C 
ATOM     22  O   UNL     1      14.569  67.114  45.933  1.00  0.00    -0.462 OA
ATOM     23  C   UNL     1      19.594  67.736  45.113  1.00  0.00    -0.023 C 
ATOM     24  C   UNL     1      13.370  67.764  45.976  1.00  0.00    +0.316 C 
ATOM     25  C   UNL     1      20.287  68.845  44.779  1.00  0.00    -0.048 C 
ATOM     26  O   UNL     1      12.732  68.115  44.996  1.00  0.00    -0.251 OA
ATOM     27  C   UNL     1      12.982  67.954  47.442  1.00  0.00    +0.161 C 
ATOM     28  C   UNL     1      13.552  69.286  48.001  1.00  0.00    +0.134 C 
ATOM     29  C   UNL     1      11.496  67.798  47.659  1.00  0.00    -0.007 C 
ATOM     30  C   UNL     1      19.860  69.986  47.153  1.00  0.00    +0.042 C 
ATOM     31  C   UNL     1      13.057  69.519  49.428  1.00  0.00    +0.188 C 
ATOM     32  C   UNL     1      15.031  69.192  48.309  1.00  0.00    -0.009 C 
ATOM     33  C   UNL     1      10.840  68.422  48.655  1.00  0.00    -0.045 C 
ATOM     34  C   UNL     1      18.354  70.154  47.017  1.00  0.00    -0.021 C 
ATOM     35  O   UNL     1      13.807  68.565  50.224  1.00  0.00    -0.367 OA
ATOM     36  C   UNL     1      11.532  69.372  49.602  1.00  0.00    +0.172 C 
ATOM     37  C   UNL     1      15.147  68.572  49.674  1.00  0.00    +0.195 C 
ATOM     38  C   UNL     1      16.022  69.677  47.542  1.00  0.00    +0.004 C 
ATOM     39  C   UNL     1      17.440  69.567  47.809  1.00  0.00    -0.004 C 
ATOM     40  C   UNL     1      15.531  64.640  38.645  1.00  0.00    +0.010 C 
ATOM     41  C   UNL     1      20.817  69.068  43.382  1.00  0.00    +0.042 C 
ATOM     42  C   UNL     1      20.389  71.056  48.112  1.00  0.00    +0.015 C 
ATOM     43  C   UNL     1       9.359  68.250  48.848  1.00  0.00    +0.042 C 
BRANCH  12  44
ATOM     44  C   UNL     1      16.066  67.699  39.648  1.00  0.00    +0.015 C 
ATOM     45  C   UNL     1      17.432  68.389  39.791  1.00  0.00    +0.010 C 
BRANCH  44  46
ATOM     46  C   UNL     1      15.796  67.496  38.136  1.00  0.00    +0.002 C 
ATOM     47  C   UNL     1      17.031  67.636  37.258  1.00  0.00    +0.004 C 
ENDBRANCH  44  46
ENDBRANCH  12  44
BRANCH  28  48
ATOM     48  O   UNL     1      13.243  70.404  47.179  1.00  0.00    -0.381 OA
ATOM     49  H   UNL     1      13.807  71.152  47.444  1.00  0.00    +0.212 HD
ENDBRANCH  28  48
BRANCH  36  50
ATOM     50  O   UNL     1      11.250  68.974  50.946  1.00  0.00    -0.386 OA
ATOM     51  H   UNL     1      10.302  68.737  50.947  1.00  0.00    +0.211 HD
ENDBRANCH  36  50
ENDBRANCH   8   9
ENDBRANCH   2   8
BRANCH   4  52
ATOM     52  O   UNL     1      19.118  75.086  46.823  1.00  0.00    -0.378 OA
ATOM     53  C   UNL     1      17.808  74.819  46.330  1.00  0.00    +0.195 C 
ENDBRANCH   4  52
BRANCH   3  54
ATOM     54  O   UNL     1      21.391  74.919  48.979  1.00  0.00    -0.344 OA
BRANCH  54  55
ATOM     55  C   UNL     1      20.462  74.487  49.977  1.00  0.00    +0.253 C 
ATOM     56  O   UNL     1      19.962  75.638  50.653  1.00  0.00    -0.347 OA
ATOM     57  C   UNL     1      21.219  73.520  50.886  1.00  0.00    +0.097 C 
ATOM     58  C   UNL     1      19.549  75.445  52.006  1.00  0.00    +0.149 C 
ATOM     59  C   UNL     1      21.822  74.261  52.069  1.00  0.00    +0.154 C 
ATOM     60  C   UNL     1      20.711  74.943  52.891  1.00  0.00    +0.172 C 
ATOM     61  C   UNL     1      18.308  74.558  52.080  1.00  0.00    +0.041 C 
BRANCH  59  62
ATOM     62  O   UNL     1      22.493  73.319  52.928  1.00  0.00    -0.378 OA
ATOM     63  C   UNL     1      21.662  72.849  53.982  1.00  0.00    +0.195 C 
ENDBRANCH  59  62
BRANCH  60  64
ATOM     64  O   UNL     1      21.310  76.059  53.581  1.00  0.00    -0.388 OA
ATOM     65  H   UNL     1      21.291  76.820  52.979  1.00  0.00    +0.211 HD
ENDBRANCH  60  64
ENDBRANCH  54  55
ENDBRANCH   3  54
TORSDOF 11
ENDMDL
MODEL 3
REMARK VINA RESULT:     2.210      3.904      7.960
REMARK INTER + INTRA:           5.022
REMARK INTER:                   4.854
REMARK INTRA:                   0.168
REMARK UNBOUND:                 1.585
REMARK SMILES CC[C@H](C)[C@H]1O[C@]2(CC[C@@H]1C)C[C@@H]1C[C@@H](C/C=C(\C)[C@@H](O[C@H]3C[C@H](OC)[C@@H](O[C@H]4C[C@H](OC)[C@@H](O)[C@H](C)O4)[C@H](C)O3)[C@@H](C)/C=C/C=C3\CO[C@@H]4[C@H](O)C(C)=C[C@@H](C(=O)O1)[C@]34O)O2
REMARK SMILES IDX 41 1 22 2 27 3 24 4 23 5 39 6 40 7 21 8 20 9 6 10 7 11 5 12
REMARK SMILES IDX 62 13 8 14 12 15 10 16 15 17 9 18 13 19 14 20 16 21 59 22
REMARK SMILES IDX 17 23 57 24 18 25 58 26 56 27 60 28 55 29 42 30 50 31 47 32
REMARK SMILES IDX 53 33 44 34 49 35 51 36 48 37 46 38 45 39 11 40 19 41 43 42
REMARK SMILES IDX 54 43 3 44 4 45 2 46 1 47 61 48 52 50 25 52 26 53 28 54
REMARK SMILES IDX 29 55 38 56 30 57 36 58 31 59 34 60 37 61 32 62 33 63 35 64
REMARK H PARENT 61 49 52 51 35 65
ROOT
ATOM      1  O   UNL     1      19.015  70.583  46.171  1.00  0.00    -0.347 OA
ATOM      2  C   UNL     1      18.300  71.377  47.114  1.00  0.00    +0.253 C 
ATOM      3  C   UNL     1      20.858  72.177  46.539  1.00  0.00    +0.179 C 
ATOM      4  C   UNL     1      20.387  72.483  47.980  1.00  0.00    +0.154 C 
ATOM      5  C   UNL     1      19.139  71.683  48.354  1.00  0.00    +0.097 C 
ATOM      6  C   UNL     1      20.436  70.749  46.161  1.00  0.00    +0.150 C 
ATOM      7  C   UNL     1      20.922  70.357  44.768  1.00  0.00    +0.041 C 
ENDROOT
BRANCH   2   8
ATOM      8  O   UNL     1      17.153  70.645  47.547  1.00  0.00    -0.344 OA
BRANCH   8   9
ATOM      9  C   UNL     1      16.265  70.207  46.503  1.00  0.00    +0.153 C 
ATOM     10  O   UNL     1      10.946  73.949  49.561  1.00  0.00    -0.346 OA
ATOM     11  C   UNL     1      10.129  73.281  48.591  1.00  0.00    +0.172 C 
ATOM     12  C   UNL     1      10.991  75.368  49.400  1.00  0.00    +0.127 C 
ATOM     13  O   UNL     1      10.862  73.038  47.380  1.00  0.00    -0.346 OA
ATOM     14  C   UNL     1       8.899  74.130  48.200  1.00  0.00    +0.066 C 
ATOM     15  C   UNL     1       9.671  71.947  49.207  1.00  0.00    +0.111 C 
ATOM     16  C   UNL     1       9.610  75.961  49.784  1.00  0.00    +0.015 C 
ATOM     17  C   UNL     1      12.038  72.240  47.563  1.00  0.00    +0.129 C 
ATOM     18  C   UNL     1       8.462  75.031  49.345  1.00  0.00    +0.011 C 
ATOM     19  C   UNL     1      10.866  71.034  49.444  1.00  0.00    +0.184 C 
ATOM     20  C   UNL     1      11.656  70.891  48.154  1.00  0.00    +0.078 C 
ATOM     21  C   UNL     1      12.738  72.083  46.195  1.00  0.00    +0.059 C 
ATOM     22  O   UNL     1      10.447  69.696  49.771  1.00  0.00    -0.462 OA
ATOM     23  C   UNL     1      13.880  71.093  46.226  1.00  0.00    -0.023 C 
ATOM     24  C   UNL     1      10.290  69.373  51.088  1.00  0.00    +0.316 C 
ATOM     25  C   UNL     1      15.205  71.324  46.345  1.00  0.00    -0.048 C 
ATOM     26  O   UNL     1      10.275  70.178  52.005  1.00  0.00    -0.251 OA
ATOM     27  C   UNL     1      10.131  67.857  51.192  1.00  0.00    +0.161 C 
ATOM     28  C   UNL     1      11.512  67.160  51.341  1.00  0.00    +0.134 C 
ATOM     29  C   UNL     1       9.141  67.463  52.261  1.00  0.00    -0.007 C 
ATOM     30  C   UNL     1      15.744  68.752  46.807  1.00  0.00    +0.042 C 
ATOM     31  C   UNL     1      11.329  65.659  51.564  1.00  0.00    +0.188 C 
ATOM     32  C   UNL     1      12.261  67.085  50.028  1.00  0.00    -0.009 C 
ATOM     33  C   UNL     1       9.213  66.292  52.919  1.00  0.00    -0.045 C 
ATOM     34  C   UNL     1      15.029  68.644  48.146  1.00  0.00    -0.021 C 
ATOM     35  O   UNL     1      10.927  65.154  50.264  1.00  0.00    -0.367 OA
ATOM     36  C   UNL     1      10.326  65.301  52.678  1.00  0.00    +0.172 C 
ATOM     37  C   UNL     1      11.734  65.877  49.302  1.00  0.00    +0.195 C 
ATOM     38  C   UNL     1      13.273  67.887  49.657  1.00  0.00    +0.004 C 
ATOM     39  C   UNL     1      13.977  67.845  48.394  1.00  0.00    -0.004 C 
ATOM     40  C   UNL     1       9.434  77.364  49.197  1.00  0.00    +0.010 C 
ATOM     41  C   UNL     1      15.779  72.722  46.338  1.00  0.00    +0.042 C 
ATOM     42  C   UNL     1      16.860  67.706  46.761  1.00  0.00    +0.015 C 
ATOM     43  C   UNL     1       8.213  65.925  53.982  1.00  0.00    +0.042 C 
BRANCH  12  44
ATOM     44  C   UNL     1      12.179  75.931  50.228  1.00  0.00    +0.015 C 
ATOM     45  C   UNL     1      12.886  77.104  49.529  1.00  0.00    +0.010 C 
BRANCH  44  46
ATOM     46  C   UNL     1      11.743  76.413  51.634  1.00  0.00    +0.002 C 
ATOM     47  C   UNL     1      11.142  75.321  52.508  1.00  0.00    +0.004 C 
ENDBRANCH  44  46
ENDBRANCH  12  44
BRANCH  28  48
ATOM     48  O   UNL     1      12.302  67.724  52.380  1.00  0.00    -0.381 OA
ATOM     49  H   UNL     1      11.815  68.469  52.773  1.00  0.00    +0.212 HD
ENDBRANCH  28  48
BRANCH  36  50
ATOM     50  O   UNL     1       9.754  64.021  52.400  1.00  0.00    -0.386 OA
ATOM     51  H   UNL     1       8.832  64.080  52.719  1.00  0.00    +0.211 HD
ENDBRANCH  36  50
ENDBRANCH   8   9
ENDBRANCH   2   8
BRANCH   4  52
ATOM     52  O   UNL     1      20.109  73.896  48.059  1.00  0.00    -0.378 OA
ATOM     53  C   UNL     1      19.843  74.340  49.386  1.00  0.00    +0.195 C 
ENDBRANCH   4  52
BRANCH   3  54
ATOM     54  O   UNL     1      22.289  72.283  46.481  1.00  0.00    -0.344 OA
BRANCH  54  55
ATOM     55  C   UNL     1      22.827  73.135  47.498  1.00  0.00    +0.253 C 
ATOM     56  O   UNL     1      22.658  74.489  47.084  1.00  0.00    -0.347 OA
ATOM     57  C   UNL     1      24.287  72.725  47.681  1.00  0.00    +0.097 C 
ATOM     58  C   UNL     1      23.614  75.424  47.582  1.00  0.00    +0.149 C 
ATOM     59  C   UNL     1      25.192  73.564  46.794  1.00  0.00    +0.154 C 
ATOM     60  C   UNL     1      25.051  75.057  47.152  1.00  0.00    +0.172 C 
ATOM     61  C   UNL     1      23.466  75.608  49.092  1.00  0.00    +0.041 C 
BRANCH  59  62
ATOM     62  O   UNL     1      26.563  73.183  47.019  1.00  0.00    -0.378 OA
ATOM     63  C   UNL     1      27.235  72.821  45.819  1.00  0.00    +0.195 C 
ENDBRANCH  59  62
BRANCH  60  64
ATOM     64  O   UNL     1      25.413  75.815  45.979  1.00  0.00    -0.388 OA
ATOM     65  H   UNL     1      25.877  76.614  46.279  1.00  0.00    +0.211 HD
ENDBRANCH  60  64
ENDBRANCH  54  55
ENDBRANCH   3  54
TORSDOF 11
ENDMDL
MODEL 4
REMARK VINA RESULT:     2.977      1.512      2.762
REMARK INTER + INTRA:           6.216
REMARK INTER:                   2.264
REMARK INTRA:                   3.952
REMARK UNBOUND:                 1.585
REMARK SMILES CC[C@H](C)[C@H]1O[C@]2(CC[C@@H]1C)C[C@@H]1C[C@@H](C/C=C(\C)[C@@H](O[C@H]3C[C@H](OC)[C@@H](O[C@H]4C[C@H](OC)[C@@H](O)[C@H](C)O4)[C@H](C)O3)[C@@H](C)/C=C/C=C3\CO[C@@H]4[C@H](O)C(C)=C[C@@H](C(=O)O1)[C@]34O)O2
REMARK SMILES IDX 41 1 22 2 27 3 24 4 23 5 39 6 40 7 21 8 20 9 6 10 7 11 5 12
REMARK SMILES IDX 62 13 8 14 12 15 10 16 15 17 9 18 13 19 14 20 16 21 59 22
REMARK SMILES IDX 17 23 57 24 18 25 58 26 56 27 60 28 55 29 42 30 50 31 47 32
REMARK SMILES IDX 53 33 44 34 49 35 51 36 48 37 46 38 45 39 11 40 19 41 43 42
REMARK SMILES IDX 54 43 3 44 4 45 2 46 1 47 61 48 52 50 25 52 26 53 28 54
REMARK SMILES IDX 29 55 38 56 30 57 36 58 31 59 34 60 37 61 32 62 33 63 35 64
REMARK H PARENT 61 49 52 51 35 65
ROOT
ATOM      1  O   UNL     1      20.516  72.612  45.529  1.00  0.00    -0.347 OA
ATOM      2  C   UNL     1      20.772  71.444  46.307  1.00  0.00    +0.253 C 
ATOM      3  C   UNL     1      21.657  73.820  47.350  1.00  0.00    +0.179 C 
ATOM      4  C   UNL     1      22.518  72.588  47.711  1.00  0.00    +0.154 C 
ATOM      5  C   UNL     1      22.216  71.395  46.803  1.00  0.00    +0.097 C 
ATOM      6  C   UNL     1      21.296  73.766  45.858  1.00  0.00    +0.150 C 
ATOM      7  C   UNL     1      20.492  74.987  45.417  1.00  0.00    +0.041 C 
ENDROOT
BRANCH   2   8
ATOM      8  O   UNL     1      20.566  70.297  45.483  1.00  0.00    -0.344 OA
BRANCH   8   9
ATOM      9  C   UNL     1      20.551  69.033  46.170  1.00  0.00    +0.153 C 
ATOM     10  O   UNL     1      15.324  66.792  41.776  1.00  0.00    -0.346 OA
ATOM     11  C   UNL     1      15.271  65.669  42.666  1.00  0.00    +0.172 C 
ATOM     12  C   UNL     1      15.714  66.454  40.443  1.00  0.00    +0.127 C 
ATOM     13  O   UNL     1      16.571  65.379  43.207  1.00  0.00    -0.346 OA
ATOM     14  C   UNL     1      14.798  64.390  41.943  1.00  0.00    +0.066 C 
ATOM     15  C   UNL     1      14.295  66.022  43.801  1.00  0.00    +0.111 C 
ATOM     16  C   UNL     1      14.566  65.655  39.772  1.00  0.00    +0.015 C 
ATOM     17  C   UNL     1      17.153  66.468  43.934  1.00  0.00    +0.129 C 
ATOM     18  C   UNL     1      13.872  64.721  40.782  1.00  0.00    +0.011 C 
ATOM     19  C   UNL     1      14.835  67.182  44.626  1.00  0.00    +0.184 C 
ATOM     20  C   UNL     1      16.245  66.858  45.090  1.00  0.00    +0.078 C 
ATOM     21  C   UNL     1      18.549  66.029  44.430  1.00  0.00    +0.059 C 
ATOM     22  O   UNL     1      14.079  67.361  45.839  1.00  0.00    -0.462 OA
ATOM     23  C   UNL     1      19.176  67.023  45.381  1.00  0.00    -0.023 C 
ATOM     24  C   UNL     1      13.025  68.227  45.820  1.00  0.00    +0.316 C 
ATOM     25  C   UNL     1      20.090  67.984  45.129  1.00  0.00    -0.048 C 
ATOM     26  O   UNL     1      12.539  68.711  44.809  1.00  0.00    -0.251 OA
ATOM     27  C   UNL     1      12.575  68.464  47.260  1.00  0.00    +0.161 C 
ATOM     28  C   UNL     1      13.346  69.653  47.898  1.00  0.00    +0.134 C 
ATOM     29  C   UNL     1      11.074  68.592  47.372  1.00  0.00    -0.007 C 
ATOM     30  C   UNL     1      19.716  69.146  47.501  1.00  0.00    +0.042 C 
ATOM     31  C   UNL     1      12.802  69.952  49.294  1.00  0.00    +0.188 C 
ATOM     32  C   UNL     1      14.753  69.272  48.302  1.00  0.00    -0.009 C 
ATOM     33  C   UNL     1      10.479  69.313  48.339  1.00  0.00    -0.045 C 
ATOM     34  C   UNL     1      18.284  69.602  47.268  1.00  0.00    -0.021 C 
ATOM     35  O   UNL     1      13.297  68.859  50.110  1.00  0.00    -0.367 OA
ATOM     36  C   UNL     1      11.268  70.096  49.359  1.00  0.00    +0.172 C 
ATOM     37  C   UNL     1      14.650  68.619  49.653  1.00  0.00    +0.195 C 
ATOM     38  C   UNL     1      15.872  69.571  47.619  1.00  0.00    +0.004 C 
ATOM     39  C   UNL     1      17.220  69.188  47.978  1.00  0.00    -0.004 C 
ATOM     40  C   UNL     1      15.080  64.871  38.562  1.00  0.00    +0.010 C 
ATOM     41  C   UNL     1      20.753  68.125  43.778  1.00  0.00    +0.042 C 
ATOM     42  C   UNL     1      20.367  70.078  48.526  1.00  0.00    +0.015 C 
ATOM     43  C   UNL     1       8.982  69.424  48.426  1.00  0.00    +0.042 C 
BRANCH  12  44
ATOM     44  C   UNL     1      16.111  67.754  39.690  1.00  0.00    +0.015 C 
ATOM     45  C   UNL     1      17.433  68.353  40.197  1.00  0.00    +0.010 C 
BRANCH  44  46
ATOM     46  C   UNL     1      16.247  67.534  38.163  1.00  0.00    +0.002 C 
ATOM     47  C   UNL     1      17.685  67.430  37.674  1.00  0.00    +0.004 C 
ENDBRANCH  44  46
ENDBRANCH  12  44
BRANCH  28  48
ATOM     48  O   UNL     1      13.314  70.823  47.091  1.00  0.00    -0.381 OA
ATOM     49  H   UNL     1      13.816  71.525  47.540  1.00  0.00    +0.212 HD
ENDBRANCH  28  48
BRANCH  36  50
ATOM     50  O   UNL     1      10.819  69.738  50.668  1.00  0.00    -0.386 OA
ATOM     51  H   UNL     1      10.305  68.916  50.544  1.00  0.00    +0.211 HD
ENDBRANCH  36  50
ENDBRANCH   8   9
ENDBRANCH   2   8
BRANCH   4  52
ATOM     52  O   UNL     1      22.239  72.246  49.084  1.00  0.00    -0.378 OA
ATOM     53  C   UNL     1      21.134  72.962  49.625  1.00  0.00    +0.195 C 
ENDBRANCH   4  52
BRANCH   3  54
ATOM     54  O   UNL     1      22.410  75.013  47.615  1.00  0.00    -0.344 OA
BRANCH  54  55
ATOM     55  C   UNL     1      23.752  74.744  48.034  1.00  0.00    +0.253 C 
ATOM     56  O   UNL     1      24.403  75.988  48.281  1.00  0.00    -0.347 OA
ATOM     57  C   UNL     1      24.398  73.921  46.922  1.00  0.00    +0.097 C 
ATOM     58  C   UNL     1      25.819  76.005  48.098  1.00  0.00    +0.149 C 
ATOM     59  C   UNL     1      25.113  74.828  45.933  1.00  0.00    +0.154 C 
ATOM     60  C   UNL     1      26.212  75.634  46.651  1.00  0.00    +0.172 C 
ATOM     61  C   UNL     1      26.518  75.148  49.151  1.00  0.00    +0.041 C 
BRANCH  59  62
ATOM     62  O   UNL     1      25.745  74.022  44.920  1.00  0.00    -0.378 OA
ATOM     63  C   UNL     1      26.844  73.273  45.423  1.00  0.00    +0.195 C 
ENDBRANCH  59  62
BRANCH  60  64
ATOM     64  O   UNL     1      26.431  76.838  45.887  1.00  0.00    -0.388 OA
ATOM     65  H   UNL     1      27.370  76.860  45.637  1.00  0.00    +0.211 HD
ENDBRANCH  60  64
ENDBRANCH  54  55
ENDBRANCH   3  54
TORSDOF 11
ENDMDL
