MODEL 1
REMARK VINA RESULT:    -8.043      0.000      0.000
REMARK INTER + INTRA:         -15.149
REMARK INTER:                 -12.510
REMARK INTRA:                  -2.639
REMARK UNBOUND:                -2.639
REMARK SMILES CC[C@H](C)[C@H]1O[C@]2(CC[C@@H]1C)C[C@@H]1C[C@@H](C/C=C(\C)[C@@H](O[C@H]3C[C@H](OC)[C@@H](O[C@H]4C[C@H](OC)[C@@H](O)[C@H](C)O4)[C@H](C)O3)[C@@H](C)/C=C/C=C3\CO[C@@H]4[C@H](O)C(C)=C[C@@H](C(=O)O1)[C@]34O)O2
REMARK SMILES IDX 41 1 22 2 27 3 24 4 23 5 39 6 40 7 21 8 20 9 6 10 7 11 5 12
REMARK SMILES IDX 62 13 8 14 12 15 10 16 15 17 9 18 13 19 14 20 16 21 59 22
REMARK SMILES IDX 17 23 57 24 18 25 58 26 56 27 60 28 55 29 42 30 50 31 47 32
REMARK SMILES IDX 53 33 44 34 49 35 51 36 48 37 46 38 45 39 11 40 19 41 43 42
REMARK SMILES IDX 54 43 3 44 4 45 2 46 1 47 61 48 52 50 25 52 26 53 28 54
REMARK SMILES IDX 29 55 38 56 30 57 36 58 31 59 34 60 37 61 32 62 33 63 35 64
REMARK H PARENT 61 49 52 51 35 65
ROOT
ATOM      1  O   UNL     1     -21.178   7.242 -19.908  1.00  0.00    -0.347 OA
ATOM      2  C   UNL     1     -20.858   8.509 -20.478  1.00  0.00    +0.253 C 
ATOM      3  C   UNL     1     -23.514   8.026 -19.996  1.00  0.00    +0.179 C 
ATOM      4  C   UNL     1     -23.226   8.936 -21.212  1.00  0.00    +0.154 C 
ATOM      5  C   UNL     1     -21.766   8.848 -21.658  1.00  0.00    +0.097 C 
ATOM      6  C   UNL     1     -22.546   6.833 -20.017  1.00  0.00    +0.150 C 
ATOM      7  C   UNL     1     -22.812   5.858 -18.872  1.00  0.00    +0.041 C 
ENDROOT
BRANCH   2   8
ATOM      8  O   UNL     1     -19.520   8.459 -20.971  1.00  0.00    -0.344 OA
BRANCH   8   9
ATOM      9  C   UNL     1     -18.524   9.070 -20.131  1.00  0.00    +0.153 C 
ATOM     10  O   UNL     1     -22.185   6.900 -14.340  1.00  0.00    -0.346 OA
ATOM     11  C   UNL     1     -21.244   7.717 -13.632  1.00  0.00    +0.172 C 
ATOM     12  C   UNL     1     -22.101   5.510 -14.017  1.00  0.00    +0.127 C 
ATOM     13  O   UNL     1     -19.969   7.724 -14.294  1.00  0.00    -0.346 OA
ATOM     14  C   UNL     1     -20.997   7.192 -12.201  1.00  0.00    +0.066 C 
ATOM     15  C   UNL     1     -21.818   9.143 -13.576  1.00  0.00    +0.111 C 
ATOM     16  C   UNL     1     -22.622   5.298 -12.572  1.00  0.00    +0.015 C 
ATOM     17  C   UNL     1     -20.017   8.207 -15.642  1.00  0.00    +0.129 C 
ATOM     18  C   UNL     1     -22.221   6.471 -11.657  1.00  0.00    +0.011 C 
ATOM     19  C   UNL     1     -21.911   9.734 -14.977  1.00  0.00    +0.184 C 
ATOM     20  C   UNL     1     -20.559   9.628 -15.660  1.00  0.00    +0.078 C 
ATOM     21  C   UNL     1     -18.593   8.133 -16.236  1.00  0.00    +0.059 C 
ATOM     22  O   UNL     1     -22.194  11.145 -14.933  1.00  0.00    -0.462 OA
ATOM     23  C   UNL     1     -18.481   8.804 -17.586  1.00  0.00    -0.023 C 
ATOM     24  C   UNL     1     -23.498  11.544 -14.978  1.00  0.00    +0.316 C 
ATOM     25  C   UNL     1     -18.510   8.252 -18.817  1.00  0.00    -0.048 C 
ATOM     26  O   UNL     1     -24.458  10.801 -14.845  1.00  0.00    -0.251 OA
ATOM     27  C   UNL     1     -23.529  13.054 -15.210  1.00  0.00    +0.161 C 
ATOM     28  C   UNL     1     -23.533  13.385 -16.728  1.00  0.00    +0.134 C 
ATOM     29  C   UNL     1     -24.647  13.722 -14.446  1.00  0.00    -0.007 C 
ATOM     30  C   UNL     1     -18.785  10.619 -20.016  1.00  0.00    +0.042 C 
ATOM     31  C   UNL     1     -23.684  14.890 -16.944  1.00  0.00    +0.188 C 
ATOM     32  C   UNL     1     -22.164  13.223 -17.353  1.00  0.00    -0.009 C 
ATOM     33  C   UNL     1     -25.231  14.859 -14.865  1.00  0.00    -0.045 C 
ATOM     34  C   UNL     1     -20.167  10.951 -19.472  1.00  0.00    -0.021 C 
ATOM     35  O   UNL     1     -22.392  15.434 -16.567  1.00  0.00    -0.367 OA
ATOM     36  C   UNL     1     -24.850  15.528 -16.163  1.00  0.00    +0.172 C 
ATOM     37  C   UNL     1     -21.414  14.497 -17.081  1.00  0.00    +0.195 C 
ATOM     38  C   UNL     1     -21.763  12.179 -18.098  1.00  0.00    +0.004 C 
ATOM     39  C   UNL     1     -20.449  11.997 -18.676  1.00  0.00    -0.004 C 
ATOM     40  C   UNL     1     -22.131   3.964 -12.003  1.00  0.00    +0.010 C 
ATOM     41  C   UNL     1     -18.538   6.755 -19.023  1.00  0.00    +0.042 C 
ATOM     42  C   UNL     1     -18.595  11.348 -21.349  1.00  0.00    +0.015 C 
ATOM     43  C   UNL     1     -26.344  15.503 -14.085  1.00  0.00    +0.042 C 
BRANCH  12  44
ATOM     44  C   UNL     1     -22.867   4.695 -15.096  1.00  0.00    +0.015 C 
ATOM     45  C   UNL     1     -22.114   3.425 -15.526  1.00  0.00    +0.010 C 
BRANCH  44  46
ATOM     46  C   UNL     1     -24.279   4.269 -14.625  1.00  0.00    +0.002 C 
ATOM     47  C   UNL     1     -24.514   2.765 -14.638  1.00  0.00    +0.004 C 
ENDBRANCH  44  46
ENDBRANCH  12  44
BRANCH  28  48
ATOM     48  O   UNL     1     -24.539  12.677 -17.441  1.00  0.00    -0.381 OA
ATOM     49  H   UNL     1     -24.139  12.285 -18.237  1.00  0.00    +0.212 HD
ENDBRANCH  28  48
BRANCH  36  50
ATOM     50  O   UNL     1     -24.545  16.901 -15.904  1.00  0.00    -0.386 OA
ATOM     51  H   UNL     1     -23.674  16.889 -15.463  1.00  0.00    +0.211 HD
ENDBRANCH  36  50
ENDBRANCH   8   9
ENDBRANCH   2   8
BRANCH   4  52
ATOM     52  O   UNL     1     -23.543  10.291 -20.830  1.00  0.00    -0.378 OA
ATOM     53  C   UNL     1     -23.075  11.259 -21.764  1.00  0.00    +0.195 C 
ENDBRANCH   4  52
BRANCH   3  54
ATOM     54  O   UNL     1     -24.864   7.546 -20.079  1.00  0.00    -0.344 OA
BRANCH  54  55
ATOM     55  C   UNL     1     -25.758   8.241 -19.203  1.00  0.00    +0.253 C 
ATOM     56  O   UNL     1     -24.981   9.026 -18.301  1.00  0.00    -0.347 OA
ATOM     57  C   UNL     1     -26.610   7.176 -18.516  1.00  0.00    +0.097 C 
ATOM     58  C   UNL     1     -25.566   9.281 -17.024  1.00  0.00    +0.149 C 
ATOM     59  C   UNL     1     -25.979   6.758 -17.197  1.00  0.00    +0.154 C 
ATOM     60  C   UNL     1     -25.857   7.973 -16.257  1.00  0.00    +0.172 C 
ATOM     61  C   UNL     1     -26.788  10.190 -17.152  1.00  0.00    +0.041 C 
BRANCH  59  62
ATOM     62  O   UNL     1     -26.824   5.784 -16.554  1.00  0.00    -0.378 OA
ATOM     63  C   UNL     1     -28.021   6.353 -16.038  1.00  0.00    +0.195 C 
ENDBRANCH  59  62
BRANCH  60  64
ATOM     64  O   UNL     1     -24.778   7.700 -15.340  1.00  0.00    -0.388 OA
ATOM     65  H   UNL     1     -24.869   8.311 -14.590  1.00  0.00    +0.211 HD
ENDBRANCH  60  64
ENDBRANCH  54  55
ENDBRANCH   3  54
TORSDOF 11
ENDMDL
MODEL 2
REMARK VINA RESULT:    -7.772      3.327      9.154
REMARK INTER + INTRA:         -14.728
REMARK INTER:                 -14.110
REMARK INTRA:                  -0.618
REMARK UNBOUND:                -2.639
REMARK SMILES CC[C@H](C)[C@H]1O[C@]2(CC[C@@H]1C)C[C@@H]1C[C@@H](C/C=C(\C)[C@@H](O[C@H]3C[C@H](OC)[C@@H](O[C@H]4C[C@H](OC)[C@@H](O)[C@H](C)O4)[C@H](C)O3)[C@@H](C)/C=C/C=C3\CO[C@@H]4[C@H](O)C(C)=C[C@@H](C(=O)O1)[C@]34O)O2
REMARK SMILES IDX 41 1 22 2 27 3 24 4 23 5 39 6 40 7 21 8 20 9 6 10 7 11 5 12
REMARK SMILES IDX 62 13 8 14 12 15 10 16 15 17 9 18 13 19 14 20 16 21 59 22
REMARK SMILES IDX 17 23 57 24 18 25 58 26 56 27 60 28 55 29 42 30 50 31 47 32
REMARK SMILES IDX 53 33 44 34 49 35 51 36 48 37 46 38 45 39 11 40 19 41 43 42
REMARK SMILES IDX 54 43 3 44 4 45 2 46 1 47 61 48 52 50 25 52 26 53 28 54
REMARK SMILES IDX 29 55 38 56 30 57 36 58 31 59 34 60 37 61 32 62 33 63 35 64
REMARK H PARENT 61 49 52 51 35 65
ROOT
ATOM      1  O   UNL     1     -26.212  14.130 -14.842  1.00  0.00    -0.347 OA
ATOM      2  C   UNL     1     -25.573  13.204 -15.719  1.00  0.00    +0.253 C 
ATOM      3  C   UNL     1     -26.758  15.379 -16.896  1.00  0.00    +0.179 C 
ATOM      4  C   UNL     1     -26.763  14.091 -17.751  1.00  0.00    +0.154 C 
ATOM      5  C   UNL     1     -26.457  12.849 -16.913  1.00  0.00    +0.097 C 
ATOM      6  C   UNL     1     -27.144  15.028 -15.451  1.00  0.00    +0.150 C 
ATOM      7  C   UNL     1     -27.217  16.267 -14.560  1.00  0.00    +0.041 C 
ENDROOT
BRANCH   2   8
ATOM      8  O   UNL     1     -25.324  11.997 -15.000  1.00  0.00    -0.344 OA
BRANCH   8   9
ATOM      9  C   UNL     1     -24.277  12.065 -14.015  1.00  0.00    +0.153 C 
ATOM     10  O   UNL     1     -19.749   9.082 -18.732  1.00  0.00    -0.346 OA
ATOM     11  C   UNL     1     -18.864   9.020 -17.606  1.00  0.00    +0.172 C 
ATOM     12  C   UNL     1     -19.282   9.925 -19.788  1.00  0.00    +0.127 C 
ATOM     13  O   UNL     1     -19.088  10.123 -16.714  1.00  0.00    -0.346 OA
ATOM     14  C   UNL     1     -17.384   9.096 -18.040  1.00  0.00    +0.066 C 
ATOM     15  C   UNL     1     -19.130   7.691 -16.879  1.00  0.00    +0.111 C 
ATOM     16  C   UNL     1     -18.061   9.251 -20.466  1.00  0.00    +0.015 C 
ATOM     17  C   UNL     1     -20.423  10.191 -16.199  1.00  0.00    +0.129 C 
ATOM     18  C   UNL     1     -17.185   8.516 -19.432  1.00  0.00    +0.011 C 
ATOM     19  C   UNL     1     -20.539   7.673 -16.303  1.00  0.00    +0.184 C 
ATOM     20  C   UNL     1     -20.749   8.910 -15.446  1.00  0.00    +0.078 C 
ATOM     21  C   UNL     1     -20.529  11.432 -15.284  1.00  0.00    +0.059 C 
ATOM     22  O   UNL     1     -20.724   6.565 -15.402  1.00  0.00    -0.462 OA
ATOM     23  C   UNL     1     -21.834  11.494 -14.523  1.00  0.00    -0.023 C 
ATOM     24  C   UNL     1     -21.215   5.397 -15.910  1.00  0.00    +0.316 C 
ATOM     25  C   UNL     1     -22.952  12.196 -14.805  1.00  0.00    -0.048 C 
ATOM     26  O   UNL     1     -21.319   5.144 -17.099  1.00  0.00    -0.251 OA
ATOM     27  C   UNL     1     -21.591   4.489 -14.740  1.00  0.00    +0.161 C 
ATOM     28  C   UNL     1     -23.058   4.735 -14.291  1.00  0.00    +0.134 C 
ATOM     29  C   UNL     1     -21.287   3.038 -15.028  1.00  0.00    -0.007 C 
ATOM     30  C   UNL     1     -24.401  10.862 -13.005  1.00  0.00    +0.042 C 
ATOM     31  C   UNL     1     -23.455   3.739 -13.202  1.00  0.00    +0.188 C 
ATOM     32  C   UNL     1     -23.202   6.001 -13.475  1.00  0.00    -0.009 C 
ATOM     33  C   UNL     1     -21.976   2.028 -14.468  1.00  0.00    -0.045 C 
ATOM     34  C   UNL     1     -24.353   9.504 -13.689  1.00  0.00    -0.021 C 
ATOM     35  O   UNL     1     -22.746   4.200 -12.023  1.00  0.00    -0.367 OA
ATOM     36  C   UNL     1     -23.147   2.268 -13.546  1.00  0.00    +0.172 C 
ATOM     37  C   UNL     1     -22.833   5.645 -12.061  1.00  0.00    +0.195 C 
ATOM     38  C   UNL     1     -23.678   7.174 -13.927  1.00  0.00    +0.004 C 
ATOM     39  C   UNL     1     -23.793   8.399 -13.166  1.00  0.00    -0.004 C 
ATOM     40  C   UNL     1     -17.239  10.274 -21.255  1.00  0.00    +0.010 C 
ATOM     41  C   UNL     1     -23.010  13.187 -15.945  1.00  0.00    +0.042 C 
ATOM     42  C   UNL     1     -25.670  10.939 -12.154  1.00  0.00    +0.015 C 
ATOM     43  C   UNL     1     -21.652   0.591 -14.774  1.00  0.00    +0.042 C 
BRANCH  12  44
ATOM     44  C   UNL     1     -20.463  10.223 -20.754  1.00  0.00    +0.015 C 
ATOM     45  C   UNL     1     -21.629   9.235 -20.588  1.00  0.00    +0.010 C 
BRANCH  44  46
ATOM     46  C   UNL     1     -21.026  11.654 -20.574  1.00  0.00    +0.002 C 
ATOM     47  C   UNL     1     -20.466  12.398 -19.370  1.00  0.00    +0.004 C 
ENDBRANCH  44  46
ENDBRANCH  12  44
BRANCH  28  48
ATOM     48  O   UNL     1     -23.979   4.683 -15.373  1.00  0.00    -0.381 OA
ATOM     49  H   UNL     1     -24.235   5.592 -15.609  1.00  0.00    +0.212 HD
ENDBRANCH  28  48
BRANCH  36  50
ATOM     50  O   UNL     1     -22.941   1.537 -12.335  1.00  0.00    -0.386 OA
ATOM     51  H   UNL     1     -23.779   1.059 -12.180  1.00  0.00    +0.211 HD
ENDBRANCH  36  50
ENDBRANCH   8   9
ENDBRANCH   2   8
BRANCH   4  52
ATOM     52  O   UNL     1     -25.766  14.246 -18.783  1.00  0.00    -0.378 OA
ATOM     53  C   UNL     1     -25.401  13.014 -19.396  1.00  0.00    +0.195 C 
ENDBRANCH   4  52
BRANCH   3  54
ATOM     54  O   UNL     1     -27.715  16.303 -17.435  1.00  0.00    -0.344 OA
BRANCH  54  55
ATOM     55  C   UNL     1     -28.267  15.870 -18.682  1.00  0.00    +0.253 C 
ATOM     56  O   UNL     1     -27.914  16.821 -19.684  1.00  0.00    -0.347 OA
ATOM     57  C   UNL     1     -29.774  15.734 -18.467  1.00  0.00    +0.097 C 
ATOM     58  C   UNL     1     -28.815  16.941 -20.785  1.00  0.00    +0.149 C 
ATOM     59  C   UNL     1     -30.485  17.024 -18.842  1.00  0.00    +0.154 C 
ATOM     60  C   UNL     1     -30.227  17.362 -20.323  1.00  0.00    +0.172 C 
ATOM     61  C   UNL     1     -28.812  15.674 -21.637  1.00  0.00    +0.041 C 
BRANCH  59  62
ATOM     62  O   UNL     1     -31.904  16.853 -18.667  1.00  0.00    -0.378 OA
ATOM     63  C   UNL     1     -32.496  16.087 -19.709  1.00  0.00    +0.195 C 
ENDBRANCH  59  62
BRANCH  60  64
ATOM     64  O   UNL     1     -30.378  18.789 -20.471  1.00  0.00    -0.388 OA
ATOM     65  H   UNL     1     -30.549  19.159 -19.589  1.00  0.00    +0.211 HD
ENDBRANCH  60  64
ENDBRANCH  54  55
ENDBRANCH   3  54
TORSDOF 11
ENDMDL
MODEL 3
REMARK VINA RESULT:    -7.679      1.175      2.064
REMARK INTER + INTRA:         -14.583
REMARK INTER:                 -12.063
REMARK INTRA:                  -2.520
REMARK UNBOUND:                -2.639
REMARK SMILES CC[C@H](C)[C@H]1O[C@]2(CC[C@@H]1C)C[C@@H]1C[C@@H](C/C=C(\C)[C@@H](O[C@H]3C[C@H](OC)[C@@H](O[C@H]4C[C@H](OC)[C@@H](O)[C@H](C)O4)[C@H](C)O3)[C@@H](C)/C=C/C=C3\CO[C@@H]4[C@H](O)C(C)=C[C@@H](C(=O)O1)[C@]34O)O2
REMARK SMILES IDX 41 1 22 2 27 3 24 4 23 5 39 6 40 7 21 8 20 9 6 10 7 11 5 12
REMARK SMILES IDX 62 13 8 14 12 15 10 16 15 17 9 18 13 19 14 20 16 21 59 22
REMARK SMILES IDX 17 23 57 24 18 25 58 26 56 27 60 28 55 29 42 30 50 31 47 32
REMARK SMILES IDX 53 33 44 34 49 35 51 36 48 37 46 38 45 39 11 40 19 41 43 42
REMARK SMILES IDX 54 43 3 44 4 45 2 46 1 47 61 48 52 50 25 52 26 53 28 54
REMARK SMILES IDX 29 55 38 56 30 57 36 58 31 59 34 60 37 61 32 62 33 63 35 64
REMARK H PARENT 61 49 52 51 35 65
ROOT
ATOM      1  O   UNL     1     -21.330   7.511 -20.184  1.00  0.00    -0.347 OA
ATOM      2  C   UNL     1     -20.808   8.764 -20.622  1.00  0.00    +0.253 C 
ATOM      3  C   UNL     1     -23.533   8.603 -20.366  1.00  0.00    +0.179 C 
ATOM      4  C   UNL     1     -23.038   9.555 -21.478  1.00  0.00    +0.154 C 
ATOM      5  C   UNL     1     -21.570   9.308 -21.829  1.00  0.00    +0.097 C 
ATOM      6  C   UNL     1     -22.725   7.297 -20.421  1.00  0.00    +0.150 C 
ATOM      7  C   UNL     1     -23.203   6.283 -19.384  1.00  0.00    +0.041 C 
ENDROOT
BRANCH   2   8
ATOM      8  O   UNL     1     -19.452   8.574 -21.025  1.00  0.00    -0.344 OA
BRANCH   8   9
ATOM      9  C   UNL     1     -18.460   9.177 -20.175  1.00  0.00    +0.153 C 
ATOM     10  O   UNL     1     -22.148   6.953 -14.421  1.00  0.00    -0.346 OA
ATOM     11  C   UNL     1     -21.211   7.764 -13.702  1.00  0.00    +0.172 C 
ATOM     12  C   UNL     1     -22.066   5.560 -14.111  1.00  0.00    +0.127 C 
ATOM     13  O   UNL     1     -19.932   7.777 -14.357  1.00  0.00    -0.346 OA
ATOM     14  C   UNL     1     -20.970   7.226 -12.274  1.00  0.00    +0.066 C 
ATOM     15  C   UNL     1     -21.784   9.190 -13.635  1.00  0.00    +0.111 C 
ATOM     16  C   UNL     1     -22.593   5.335 -12.670  1.00  0.00    +0.015 C 
ATOM     17  C   UNL     1     -19.974   8.272 -15.701  1.00  0.00    +0.129 C 
ATOM     18  C   UNL     1     -22.197   6.500 -11.743  1.00  0.00    +0.011 C 
ATOM     19  C   UNL     1     -21.871   9.793 -15.030  1.00  0.00    +0.184 C 
ATOM     20  C   UNL     1     -20.516   9.694 -15.708  1.00  0.00    +0.078 C 
ATOM     21  C   UNL     1     -18.547   8.204 -16.289  1.00  0.00    +0.059 C 
ATOM     22  O   UNL     1     -22.154  11.204 -14.974  1.00  0.00    -0.462 OA
ATOM     23  C   UNL     1     -18.429   8.888 -17.632  1.00  0.00    -0.023 C 
ATOM     24  C   UNL     1     -23.458  11.603 -15.022  1.00  0.00    +0.316 C 
ATOM     25  C   UNL     1     -18.453   8.347 -18.869  1.00  0.00    -0.048 C 
ATOM     26  O   UNL     1     -24.419  10.859 -14.900  1.00  0.00    -0.251 OA
ATOM     27  C   UNL     1     -23.488  13.115 -15.240  1.00  0.00    +0.161 C 
ATOM     28  C   UNL     1     -23.485  13.460 -16.755  1.00  0.00    +0.134 C 
ATOM     29  C   UNL     1     -24.609  13.776 -14.475  1.00  0.00    -0.007 C 
ATOM     30  C   UNL     1     -18.722  10.725 -20.046  1.00  0.00    +0.042 C 
ATOM     31  C   UNL     1     -23.635  14.968 -16.957  1.00  0.00    +0.188 C 
ATOM     32  C   UNL     1     -22.113  13.304 -17.375  1.00  0.00    -0.009 C 
ATOM     33  C   UNL     1     -25.191  14.917 -14.886  1.00  0.00    -0.045 C 
ATOM     34  C   UNL     1     -20.106  11.052 -19.505  1.00  0.00    -0.021 C 
ATOM     35  O   UNL     1     -22.345  15.508 -16.569  1.00  0.00    -0.367 OA
ATOM     36  C   UNL     1     -24.804  15.599 -16.176  1.00  0.00    +0.172 C 
ATOM     37  C   UNL     1     -21.364  14.576 -17.087  1.00  0.00    +0.195 C 
ATOM     38  C   UNL     1     -21.708  12.267 -18.128  1.00  0.00    +0.004 C 
ATOM     39  C   UNL     1     -20.391  12.091 -18.701  1.00  0.00    -0.004 C 
ATOM     40  C   UNL     1     -22.105   3.996 -12.111  1.00  0.00    +0.010 C 
ATOM     41  C   UNL     1     -18.479   6.852 -19.089  1.00  0.00    +0.042 C 
ATOM     42  C   UNL     1     -18.526  11.467 -21.371  1.00  0.00    +0.015 C 
ATOM     43  C   UNL     1     -26.308  15.554 -14.105  1.00  0.00    +0.042 C 
BRANCH  12  44
ATOM     44  C   UNL     1     -22.826   4.755 -15.201  1.00  0.00    +0.015 C 
ATOM     45  C   UNL     1     -23.797   5.627 -16.014  1.00  0.00    +0.010 C 
BRANCH  44  46
ATOM     46  C   UNL     1     -21.867   4.060 -16.199  1.00  0.00    +0.002 C 
ATOM     47  C   UNL     1     -20.817   4.984 -16.801  1.00  0.00    +0.004 C 
ENDBRANCH  44  46
ENDBRANCH  12  44
BRANCH  28  48
ATOM     48  O   UNL     1     -24.487  12.760 -17.479  1.00  0.00    -0.381 OA
ATOM     49  H   UNL     1     -25.220  12.549 -16.874  1.00  0.00    +0.212 HD
ENDBRANCH  28  48
BRANCH  36  50
ATOM     50  O   UNL     1     -24.501  16.969 -15.903  1.00  0.00    -0.386 OA
ATOM     51  H   UNL     1     -24.597  17.063 -14.935  1.00  0.00    +0.211 HD
ENDBRANCH  36  50
ENDBRANCH   8   9
ENDBRANCH   2   8
BRANCH   4  52
ATOM     52  O   UNL     1     -23.210  10.907 -21.005  1.00  0.00    -0.378 OA
ATOM     53  C   UNL     1     -22.770  11.886 -21.942  1.00  0.00    +0.195 C 
ENDBRANCH   4  52
BRANCH   3  54
ATOM     54  O   UNL     1     -24.922   8.313 -20.581  1.00  0.00    -0.344 OA
BRANCH  54  55
ATOM     55  C   UNL     1     -25.695   8.363 -19.378  1.00  0.00    +0.253 C 
ATOM     56  O   UNL     1     -26.999   7.860 -19.661  1.00  0.00    -0.347 OA
ATOM     57  C   UNL     1     -25.685   9.819 -18.914  1.00  0.00    +0.097 C 
ATOM     58  C   UNL     1     -28.060   8.368 -18.853  1.00  0.00    +0.149 C 
ATOM     59  C   UNL     1     -26.889  10.563 -19.468  1.00  0.00    +0.154 C 
ATOM     60  C   UNL     1     -28.193   9.901 -18.984  1.00  0.00    +0.172 C 
ATOM     61  C   UNL     1     -27.923   7.896 -17.407  1.00  0.00    +0.041 C 
BRANCH  59  62
ATOM     62  O   UNL     1     -26.874  11.919 -18.982  1.00  0.00    -0.378 OA
ATOM     63  C   UNL     1     -26.959  12.878 -20.029  1.00  0.00    +0.195 C 
ENDBRANCH  59  62
BRANCH  60  64
ATOM     64  O   UNL     1     -29.219  10.217 -19.947  1.00  0.00    -0.388 OA
ATOM     65  H   UNL     1     -29.280  11.184 -20.005  1.00  0.00    +0.211 HD
ENDBRANCH  60  64
ENDBRANCH  54  55
ENDBRANCH   3  54
TORSDOF 11
ENDMDL
MODEL 4
REMARK VINA RESULT:    -7.358      3.985      8.258
REMARK INTER + INTRA:         -14.084
REMARK INTER:                 -12.341
REMARK INTRA:                  -1.743
REMARK UNBOUND:                -2.639
REMARK SMILES CC[C@H](C)[C@H]1O[C@]2(CC[C@@H]1C)C[C@@H]1C[C@@H](C/C=C(\C)[C@@H](O[C@H]3C[C@H](OC)[C@@H](O[C@H]4C[C@H](OC)[C@@H](O)[C@H](C)O4)[C@H](C)O3)[C@@H](C)/C=C/C=C3\CO[C@@H]4[C@H](O)C(C)=C[C@@H](C(=O)O1)[C@]34O)O2
REMARK SMILES IDX 41 1 22 2 27 3 24 4 23 5 39 6 40 7 21 8 20 9 6 10 7 11 5 12
REMARK SMILES IDX 62 13 8 14 12 15 10 16 15 17 9 18 13 19 14 20 16 21 59 22
REMARK SMILES IDX 17 23 57 24 18 25 58 26 56 27 60 28 55 29 42 30 50 31 47 32
REMARK SMILES IDX 53 33 44 34 49 35 51 36 48 37 46 38 45 39 11 40 19 41 43 42
REMARK SMILES IDX 54 43 3 44 4 45 2 46 1 47 61 48 52 50 25 52 26 53 28 54
REMARK SMILES IDX 29 55 38 56 30 57 36 58 31 59 34 60 37 61 32 62 33 63 35 64
REMARK H PARENT 61 49 52 51 35 65
ROOT
ATOM      1  O   UNL     1     -19.650   8.140 -18.416  1.00  0.00    -0.347 OA
ATOM      2  C   UNL     1     -19.273   9.156 -19.344  1.00  0.00    +0.253 C 
ATOM      3  C   UNL     1     -17.369   7.271 -18.759  1.00  0.00    +0.179 C 
ATOM      4  C   UNL     1     -16.816   8.678 -19.084  1.00  0.00    +0.154 C 
ATOM      5  C   UNL     1     -17.905   9.749 -19.012  1.00  0.00    +0.097 C 
ATOM      6  C   UNL     1     -18.576   7.407 -17.819  1.00  0.00    +0.150 C 
ATOM      7  C   UNL     1     -19.138   6.048 -17.407  1.00  0.00    +0.041 C 
ENDROOT
BRANCH   2   8
ATOM      8  O   UNL     1     -20.226  10.215 -19.269  1.00  0.00    -0.344 OA
BRANCH   8   9
ATOM      9  C   UNL     1     -19.680  11.546 -19.300  1.00  0.00    +0.153 C 
ATOM     10  O   UNL     1     -25.350  13.877 -15.549  1.00  0.00    -0.346 OA
ATOM     11  C   UNL     1     -24.805  15.173 -15.829  1.00  0.00    +0.172 C 
ATOM     12  C   UNL     1     -25.373  13.547 -14.158  1.00  0.00    +0.127 C 
ATOM     13  O   UNL     1     -23.371  15.123 -15.900  1.00  0.00    -0.346 OA
ATOM     14  C   UNL     1     -25.157  16.190 -14.722  1.00  0.00    +0.066 C 
ATOM     15  C   UNL     1     -25.385  15.640 -17.175  1.00  0.00    +0.111 C 
ATOM     16  C   UNL     1     -26.438  14.426 -13.452  1.00  0.00    +0.015 C 
ATOM     17  C   UNL     1     -22.870  14.229 -16.902  1.00  0.00    +0.129 C 
ATOM     18  C   UNL     1     -26.479  15.844 -14.052  1.00  0.00    +0.011 C 
ATOM     19  C   UNL     1     -24.907  14.735 -18.302  1.00  0.00    +0.184 C 
ATOM     20  C   UNL     1     -23.391  14.646 -18.269  1.00  0.00    +0.078 C 
ATOM     21  C   UNL     1     -21.327  14.255 -16.849  1.00  0.00    +0.059 C 
ATOM     22  O   UNL     1     -25.217  15.296 -19.592  1.00  0.00    -0.462 OA
ATOM     23  C   UNL     1     -20.684  13.505 -17.993  1.00  0.00    -0.023 C 
ATOM     24  C   UNL     1     -26.396  14.944 -20.182  1.00  0.00    +0.316 C 
ATOM     25  C   UNL     1     -20.190  12.249 -18.018  1.00  0.00    -0.048 C 
ATOM     26  O   UNL     1     -27.307  14.355 -19.621  1.00  0.00    -0.251 OA
ATOM     27  C   UNL     1     -26.365  15.420 -21.633  1.00  0.00    +0.161 C 
ATOM     28  C   UNL     1     -25.751  14.338 -22.563  1.00  0.00    +0.134 C 
ATOM     29  C   UNL     1     -27.714  15.915 -22.096  1.00  0.00    -0.007 C 
ATOM     30  C   UNL     1     -20.004  12.234 -20.680  1.00  0.00    +0.042 C 
ATOM     31  C   UNL     1     -25.836  14.781 -24.023  1.00  0.00    +0.188 C 
ATOM     32  C   UNL     1     -24.243  14.277 -22.453  1.00  0.00    -0.009 C 
ATOM     33  C   UNL     1     -28.101  15.864 -23.383  1.00  0.00    -0.045 C 
ATOM     34  C   UNL     1     -21.494  12.301 -20.977  1.00  0.00    -0.021 C 
ATOM     35  O   UNL     1     -24.829  15.819 -24.139  1.00  0.00    -0.367 OA
ATOM     36  C   UNL     1     -27.235  15.257 -24.460  1.00  0.00    +0.172 C 
ATOM     37  C   UNL     1     -23.703  15.353 -23.355  1.00  0.00    +0.195 C 
ATOM     38  C   UNL     1     -23.544  13.359 -21.765  1.00  0.00    +0.004 C 
ATOM     39  C   UNL     1     -22.105  13.307 -21.627  1.00  0.00    -0.004 C 
ATOM     40  C   UNL     1     -26.193  14.475 -11.941  1.00  0.00    +0.010 C 
ATOM     41  C   UNL     1     -20.094  11.401 -16.771  1.00  0.00    +0.042 C 
ATOM     42  C   UNL     1     -19.299  11.554 -21.856  1.00  0.00    +0.015 C 
ATOM     43  C   UNL     1     -29.453  16.363 -23.817  1.00  0.00    +0.042 C 
BRANCH  12  44
ATOM     44  C   UNL     1     -25.605  12.019 -14.006  1.00  0.00    +0.015 C 
ATOM     45  C   UNL     1     -25.728  11.299 -15.359  1.00  0.00    +0.010 C 
BRANCH  44  46
ATOM     46  C   UNL     1     -24.475  11.326 -13.204  1.00  0.00    +0.002 C 
ATOM     47  C   UNL     1     -23.072  11.650 -13.698  1.00  0.00    +0.004 C 
ENDBRANCH  44  46
ENDBRANCH  12  44
BRANCH  28  48
ATOM     48  O   UNL     1     -26.355  13.062 -22.394  1.00  0.00    -0.381 OA
ATOM     49  H   UNL     1     -26.109  12.714 -21.520  1.00  0.00    +0.212 HD
ENDBRANCH  28  48
BRANCH  36  50
ATOM     50  O   UNL     1     -27.098  16.197 -25.529  1.00  0.00    -0.386 OA
ATOM     51  H   UNL     1     -27.515  17.017 -25.201  1.00  0.00    +0.211 HD
ENDBRANCH  36  50
ENDBRANCH   8   9
ENDBRANCH   2   8
BRANCH   4  52
ATOM     52  O   UNL     1     -16.258   8.632 -20.414  1.00  0.00    -0.378 OA
ATOM     53  C   UNL     1     -14.945   9.181 -20.487  1.00  0.00    +0.195 C 
ENDBRANCH   4  52
BRANCH   3  54
ATOM     54  O   UNL     1     -16.344   6.504 -18.110  1.00  0.00    -0.344 OA
BRANCH  54  55
ATOM     55  C   UNL     1     -15.886   5.403 -18.903  1.00  0.00    +0.253 C 
ATOM     56  O   UNL     1     -16.442   4.204 -18.369  1.00  0.00    -0.347 OA
ATOM     57  C   UNL     1     -14.359   5.444 -18.863  1.00  0.00    +0.097 C 
ATOM     58  C   UNL     1     -15.682   3.013 -18.569  1.00  0.00    +0.149 C 
ATOM     59  C   UNL     1     -13.831   4.576 -17.732  1.00  0.00    +0.154 C 
ATOM     60  C   UNL     1     -14.280   3.115 -17.929  1.00  0.00    +0.172 C 
ATOM     61  C   UNL     1     -15.643   2.629 -20.047  1.00  0.00    +0.041 C 
BRANCH  59  62
ATOM     62  O   UNL     1     -12.391   4.602 -17.745  1.00  0.00    -0.378 OA
ATOM     63  C   UNL     1     -11.842   5.130 -16.545  1.00  0.00    +0.195 C 
ENDBRANCH  59  62
BRANCH  60  64
ATOM     64  O   UNL     1     -14.296   2.491 -16.629  1.00  0.00    -0.388 OA
ATOM     65  H   UNL     1     -13.601   1.812 -16.621  1.00  0.00    +0.211 HD
ENDBRANCH  60  64
ENDBRANCH  54  55
ENDBRANCH   3  54
TORSDOF 11
ENDMDL
MODEL 5
REMARK VINA RESULT:    -7.269      3.808      9.039
REMARK INTER + INTRA:         -13.945
REMARK INTER:                 -12.784
REMARK INTRA:                  -1.161
REMARK UNBOUND:                -2.639
REMARK SMILES CC[C@H](C)[C@H]1O[C@]2(CC[C@@H]1C)C[C@@H]1C[C@@H](C/C=C(\C)[C@@H](O[C@H]3C[C@H](OC)[C@@H](O[C@H]4C[C@H](OC)[C@@H](O)[C@H](C)O4)[C@H](C)O3)[C@@H](C)/C=C/C=C3\CO[C@@H]4[C@H](O)C(C)=C[C@@H](C(=O)O1)[C@]34O)O2
REMARK SMILES IDX 41 1 22 2 27 3 24 4 23 5 39 6 40 7 21 8 20 9 6 10 7 11 5 12
REMARK SMILES IDX 62 13 8 14 12 15 10 16 15 17 9 18 13 19 14 20 16 21 59 22
REMARK SMILES IDX 17 23 57 24 18 25 58 26 56 27 60 28 55 29 42 30 50 31 47 32
REMARK SMILES IDX 53 33 44 34 49 35 51 36 48 37 46 38 45 39 11 40 19 41 43 42
REMARK SMILES IDX 54 43 3 44 4 45 2 46 1 47 61 48 52 50 25 52 26 53 28 54
REMARK SMILES IDX 29 55 38 56 30 57 36 58 31 59 34 60 37 61 32 62 33 63 35 64
REMARK H PARENT 61 49 52 51 35 65
ROOT
ATOM      1  O   UNL     1     -27.374  12.963 -17.485  1.00  0.00    -0.347 OA
ATOM      2  C   UNL     1     -26.461  13.758 -16.730  1.00  0.00    +0.253 C 
ATOM      3  C   UNL     1     -28.959  14.817 -17.129  1.00  0.00    +0.179 C 
ATOM      4  C   UNL     1     -27.817  15.855 -17.033  1.00  0.00    +0.154 C 
ATOM      5  C   UNL     1     -26.442  15.209 -17.206  1.00  0.00    +0.097 C 
ATOM      6  C   UNL     1     -28.508  13.651 -18.021  1.00  0.00    +0.150 C 
ATOM      7  C   UNL     1     -29.612  12.612 -18.209  1.00  0.00    +0.041 C 
ENDROOT
BRANCH   2   8
ATOM      8  O   UNL     1     -25.146  13.234 -16.911  1.00  0.00    -0.344 OA
BRANCH   8   9
ATOM      9  C   UNL     1     -24.207  13.535 -15.863  1.00  0.00    +0.153 C 
ATOM     10  O   UNL     1     -19.261   9.584 -19.266  1.00  0.00    -0.346 OA
ATOM     11  C   UNL     1     -18.499   9.789 -18.069  1.00  0.00    +0.172 C 
ATOM     12  C   UNL     1     -18.673  10.165 -20.432  1.00  0.00    +0.127 C 
ATOM     13  O   UNL     1     -18.797  11.067 -17.482  1.00  0.00    -0.346 OA
ATOM     14  C   UNL     1     -16.981   9.776 -18.350  1.00  0.00    +0.066 C 
ATOM     15  C   UNL     1     -18.862   8.661 -17.088  1.00  0.00    +0.111 C 
ATOM     16  C   UNL     1     -17.399   9.363 -20.804  1.00  0.00    +0.015 C 
ATOM     17  C   UNL     1     -20.178  11.240 -17.140  1.00  0.00    +0.129 C 
ATOM     18  C   UNL     1     -16.647   8.893 -19.543  1.00  0.00    +0.011 C 
ATOM     19  C   UNL     1     -20.323   8.765 -16.675  1.00  0.00    +0.184 C 
ATOM     20  C   UNL     1     -20.601  10.164 -16.152  1.00  0.00    +0.078 C 
ATOM     21  C   UNL     1     -20.358  12.657 -16.550  1.00  0.00    +0.059 C 
ATOM     22  O   UNL     1     -20.619   7.892 -15.568  1.00  0.00    -0.462 OA
ATOM     23  C   UNL     1     -21.734  12.882 -15.966  1.00  0.00    -0.023 C 
ATOM     24  C   UNL     1     -21.074   6.635 -15.843  1.00  0.00    +0.316 C 
ATOM     25  C   UNL     1     -22.805  13.491 -16.518  1.00  0.00    -0.048 C 
ATOM     26  O   UNL     1     -21.058   6.114 -16.947  1.00  0.00    -0.251 OA
ATOM     27  C   UNL     1     -21.585   6.017 -14.543  1.00  0.00    +0.161 C 
ATOM     28  C   UNL     1     -23.087   6.348 -14.319  1.00  0.00    +0.134 C 
ATOM     29  C   UNL     1     -21.276   4.541 -14.457  1.00  0.00    -0.007 C 
ATOM     30  C   UNL     1     -24.455  12.595 -14.623  1.00  0.00    +0.042 C 
ATOM     31  C   UNL     1     -23.612   5.625 -13.079  1.00  0.00    +0.188 C 
ATOM     32  C   UNL     1     -23.294   7.766 -13.835  1.00  0.00    -0.009 C 
ATOM     33  C   UNL     1     -22.036   3.682 -13.756  1.00  0.00    -0.045 C 
ATOM     34  C   UNL     1     -24.359  11.117 -14.968  1.00  0.00    -0.021 C 
ATOM     35  O   UNL     1     -23.022   6.351 -11.970  1.00  0.00    -0.367 OA
ATOM     36  C   UNL     1     -23.293   4.117 -13.042  1.00  0.00    +0.172 C 
ATOM     37  C   UNL     1     -23.080   7.748 -12.347  1.00  0.00    +0.195 C 
ATOM     38  C   UNL     1     -23.701   8.800 -14.592  1.00  0.00    +0.004 C 
ATOM     39  C   UNL     1     -23.874  10.167 -14.150  1.00  0.00    -0.004 C 
ATOM     40  C   UNL     1     -16.482  10.184 -21.715  1.00  0.00    +0.010 C 
ATOM     41  C   UNL     1     -22.727  14.193 -17.854  1.00  0.00    +0.042 C 
ATOM     42  C   UNL     1     -25.806  12.855 -13.950  1.00  0.00    +0.015 C 
ATOM     43  C   UNL     1     -21.706   2.216 -13.688  1.00  0.00    +0.042 C 
BRANCH  12  44
ATOM     44  C   UNL     1     -19.741  10.223 -21.559  1.00  0.00    +0.015 C 
ATOM     45  C   UNL     1     -20.885   9.219 -21.345  1.00  0.00    +0.010 C 
BRANCH  44  46
ATOM     46  C   UNL     1     -20.370  11.631 -21.705  1.00  0.00    +0.002 C 
ATOM     47  C   UNL     1     -19.861  12.649 -20.694  1.00  0.00    +0.004 C 
ENDBRANCH  44  46
ENDBRANCH  12  44
BRANCH  28  48
ATOM     48  O   UNL     1     -23.890   6.041 -15.451  1.00  0.00    -0.381 OA
ATOM     49  H   UNL     1     -23.467   5.319 -15.948  1.00  0.00    +0.212 HD
ENDBRANCH  28  48
BRANCH  36  50
ATOM     50  O   UNL     1     -23.226   3.686 -11.681  1.00  0.00    -0.386 OA
ATOM     51  H   UNL     1     -23.815   4.293 -11.192  1.00  0.00    +0.211 HD
ENDBRANCH  36  50
ENDBRANCH   8   9
ENDBRANCH   2   8
BRANCH   4  52
ATOM     52  O   UNL     1     -27.906  16.485 -15.738  1.00  0.00    -0.378 OA
ATOM     53  C   UNL     1     -26.652  16.560 -15.067  1.00  0.00    +0.195 C 
ENDBRANCH   4  52
BRANCH   3  54
ATOM     54  O   UNL     1     -30.114  15.442 -17.708  1.00  0.00    -0.344 OA
BRANCH  54  55
ATOM     55  C   UNL     1     -29.827  16.111 -18.940  1.00  0.00    +0.253 C 
ATOM     56  O   UNL     1     -30.114  17.498 -18.775  1.00  0.00    -0.347 OA
ATOM     57  C   UNL     1     -30.676  15.431 -20.012  1.00  0.00    +0.097 C 
ATOM     58  C   UNL     1     -30.494  18.208 -19.954  1.00  0.00    +0.149 C 
ATOM     59  C   UNL     1     -32.006  16.149 -20.175  1.00  0.00    +0.154 C 
ATOM     60  C   UNL     1     -31.771  17.615 -20.590  1.00  0.00    +0.172 C 
ATOM     61  C   UNL     1     -29.326  18.312 -20.932  1.00  0.00    +0.041 C 
BRANCH  59  62
ATOM     62  O   UNL     1     -32.767  15.511 -21.219  1.00  0.00    -0.378 OA
ATOM     63  C   UNL     1     -33.929  14.856 -20.728  1.00  0.00    +0.195 C 
ENDBRANCH  59  62
BRANCH  60  64
ATOM     64  O   UNL     1     -32.921  18.373 -20.162  1.00  0.00    -0.388 OA
ATOM     65  H   UNL     1     -33.136  19.003 -20.868  1.00  0.00    +0.211 HD
ENDBRANCH  60  64
ENDBRANCH  54  55
ENDBRANCH   3  54
TORSDOF 11
ENDMDL
MODEL 6
REMARK VINA RESULT:    -7.164      2.113      7.309
REMARK INTER + INTRA:         -13.782
REMARK INTER:                 -11.675
REMARK INTRA:                  -2.108
REMARK UNBOUND:                -2.639
REMARK SMILES CC[C@H](C)[C@H]1O[C@]2(CC[C@@H]1C)C[C@@H]1C[C@@H](C/C=C(\C)[C@@H](O[C@H]3C[C@H](OC)[C@@H](O[C@H]4C[C@H](OC)[C@@H](O)[C@H](C)O4)[C@H](C)O3)[C@@H](C)/C=C/C=C3\CO[C@@H]4[C@H](O)C(C)=C[C@@H](C(=O)O1)[C@]34O)O2
REMARK SMILES IDX 41 1 22 2 27 3 24 4 23 5 39 6 40 7 21 8 20 9 6 10 7 11 5 12
REMARK SMILES IDX 62 13 8 14 12 15 10 16 15 17 9 18 13 19 14 20 16 21 59 22
REMARK SMILES IDX 17 23 57 24 18 25 58 26 56 27 60 28 55 29 42 30 50 31 47 32
REMARK SMILES IDX 53 33 44 34 49 35 51 36 48 37 46 38 45 39 11 40 19 41 43 42
REMARK SMILES IDX 54 43 3 44 4 45 2 46 1 47 61 48 52 50 25 52 26 53 28 54
REMARK SMILES IDX 29 55 38 56 30 57 36 58 31 59 34 60 37 61 32 62 33 63 35 64
REMARK H PARENT 61 49 52 51 35 65
ROOT
ATOM      1  O   UNL     1     -22.329  11.714 -15.024  1.00  0.00    -0.347 OA
ATOM      2  C   UNL     1     -22.988  12.762 -15.732  1.00  0.00    +0.253 C 
ATOM      3  C   UNL     1     -20.872  11.573 -17.008  1.00  0.00    +0.179 C 
ATOM      4  C   UNL     1     -21.078  13.069 -17.341  1.00  0.00    +0.154 C 
ATOM      5  C   UNL     1     -21.995  13.758 -16.330  1.00  0.00    +0.097 C 
ATOM      6  C   UNL     1     -21.021  11.368 -15.493  1.00  0.00    +0.150 C 
ATOM      7  C   UNL     1     -20.771   9.918 -15.083  1.00  0.00    +0.041 C 
ENDROOT
BRANCH   2   8
ATOM      8  O   UNL     1     -23.811  13.481 -14.815  1.00  0.00    -0.344 OA
BRANCH   8   9
ATOM      9  C   UNL     1     -25.189  13.068 -14.761  1.00  0.00    +0.153 C 
ATOM     10  O   UNL     1     -23.040   6.239 -14.135  1.00  0.00    -0.346 OA
ATOM     11  C   UNL     1     -24.434   5.949 -14.299  1.00  0.00    +0.172 C 
ATOM     12  C   UNL     1     -22.515   5.850 -12.864  1.00  0.00    +0.127 C 
ATOM     13  O   UNL     1     -25.247   6.992 -13.736  1.00  0.00    -0.346 OA
ATOM     14  C   UNL     1     -24.833   4.642 -13.580  1.00  0.00    +0.066 C 
ATOM     15  C   UNL     1     -24.709   5.823 -15.808  1.00  0.00    +0.111 C 
ATOM     16  C   UNL     1     -22.459   4.302 -12.797  1.00  0.00    +0.015 C 
ATOM     17  C   UNL     1     -25.013   8.283 -14.311  1.00  0.00    +0.129 C 
ATOM     18  C   UNL     1     -23.666   3.668 -13.515  1.00  0.00    +0.011 C 
ATOM     19  C   UNL     1     -24.476   7.157 -16.503  1.00  0.00    +0.184 C 
ATOM     20  C   UNL     1     -25.286   8.237 -15.807  1.00  0.00    +0.078 C 
ATOM     21  C   UNL     1     -25.926   9.305 -13.597  1.00  0.00    +0.059 C 
ATOM     22  O   UNL     1     -24.972   7.137 -17.855  1.00  0.00    -0.462 OA
ATOM     23  C   UNL     1     -25.915  10.667 -14.255  1.00  0.00    -0.023 C 
ATOM     24  C   UNL     1     -24.111   6.782 -18.853  1.00  0.00    +0.316 C 
ATOM     25  C   UNL     1     -25.215  11.770 -13.917  1.00  0.00    -0.048 C 
ATOM     26  O   UNL     1     -23.012   6.281 -18.678  1.00  0.00    -0.251 OA
ATOM     27  C   UNL     1     -24.769   7.113 -20.192  1.00  0.00    +0.161 C 
ATOM     28  C   UNL     1     -24.440   8.566 -20.631  1.00  0.00    +0.134 C 
ATOM     29  C   UNL     1     -24.456   6.080 -21.248  1.00  0.00    -0.007 C 
ATOM     30  C   UNL     1     -25.794  12.999 -16.213  1.00  0.00    +0.042 C 
ATOM     31  C   UNL     1     -25.005   8.841 -22.024  1.00  0.00    +0.188 C 
ATOM     32  C   UNL     1     -25.254   9.592 -19.872  1.00  0.00    -0.009 C 
ATOM     33  C   UNL     1     -24.422   6.374 -22.560  1.00  0.00    -0.045 C 
ATOM     34  C   UNL     1     -25.029  12.059 -17.133  1.00  0.00    -0.021 C 
ATOM     35  O   UNL     1     -26.435   8.956 -21.811  1.00  0.00    -0.367 OA
ATOM     36  C   UNL     1     -24.643   7.775 -23.077  1.00  0.00    +0.172 C 
ATOM     37  C   UNL     1     -26.584   9.686 -20.569  1.00  0.00    +0.195 C 
ATOM     38  C   UNL     1     -24.811  10.340 -18.848  1.00  0.00    +0.004 C 
ATOM     39  C   UNL     1     -25.586  11.302 -18.095  1.00  0.00    -0.004 C 
ATOM     40  C   UNL     1     -22.368   3.820 -11.346  1.00  0.00    +0.010 C 
ATOM     41  C   UNL     1     -24.375  11.834 -12.663  1.00  0.00    +0.042 C 
ATOM     42  C   UNL     1     -25.880  14.374 -16.880  1.00  0.00    +0.015 C 
ATOM     43  C   UNL     1     -24.105   5.325 -23.591  1.00  0.00    +0.042 C 
BRANCH  12  44
ATOM     44  C   UNL     1     -21.142   6.547 -12.652  1.00  0.00    +0.015 C 
ATOM     45  C   UNL     1     -20.337   6.680 -13.954  1.00  0.00    +0.010 C 
BRANCH  44  46
ATOM     46  C   UNL     1     -21.286   7.962 -12.039  1.00  0.00    +0.002 C 
ATOM     47  C   UNL     1     -22.634   8.222 -11.381  1.00  0.00    +0.004 C 
ENDBRANCH  44  46
ENDBRANCH  12  44
BRANCH  28  48
ATOM     48  O   UNL     1     -23.047   8.849 -20.595  1.00  0.00    -0.381 OA
ATOM     49  H   UNL     1     -22.766   8.913 -19.665  1.00  0.00    +0.212 HD
ENDBRANCH  28  48
BRANCH  36  50
ATOM     50  O   UNL     1     -25.660   7.743 -24.081  1.00  0.00    -0.386 OA
ATOM     51  H   UNL     1     -26.490   7.951 -23.609  1.00  0.00    +0.211 HD
ENDBRANCH  36  50
ENDBRANCH   8   9
ENDBRANCH   2   8
BRANCH   4  52
ATOM     52  O   UNL     1     -21.654  13.147 -18.662  1.00  0.00    -0.378 OA
ATOM     53  C   UNL     1     -20.750  13.662 -19.635  1.00  0.00    +0.195 C 
ENDBRANCH   4  52
BRANCH   3  54
ATOM     54  O   UNL     1     -19.552  11.180 -17.414  1.00  0.00    -0.344 OA
BRANCH  54  55
ATOM     55  C   UNL     1     -19.559  10.202 -18.459  1.00  0.00    +0.253 C 
ATOM     56  O   UNL     1     -19.784   8.922 -17.874  1.00  0.00    -0.347 OA
ATOM     57  C   UNL     1     -18.215  10.323 -19.176  1.00  0.00    +0.097 C 
ATOM     58  C   UNL     1     -19.234   7.804 -18.571  1.00  0.00    +0.149 C 
ATOM     59  C   UNL     1     -17.201   9.365 -18.573  1.00  0.00    +0.154 C 
ATOM     60  C   UNL     1     -17.699   7.912 -18.702  1.00  0.00    +0.172 C 
ATOM     61  C   UNL     1     -19.940   7.591 -19.908  1.00  0.00    +0.041 C 
BRANCH  59  62
ATOM     62  O   UNL     1     -15.959   9.472 -19.295  1.00  0.00    -0.378 OA
ATOM     63  C   UNL     1     -16.039   8.930 -20.607  1.00  0.00    +0.195 C 
ENDBRANCH  59  62
BRANCH  60  64
ATOM     64  O   UNL     1     -17.070   7.147 -17.654  1.00  0.00    -0.388 OA
ATOM     65  H   UNL     1     -16.821   7.765 -16.948  1.00  0.00    +0.211 HD
ENDBRANCH  60  64
ENDBRANCH  54  55
ENDBRANCH   3  54
TORSDOF 11
ENDMDL
MODEL 7
REMARK VINA RESULT:    -7.144      2.001      8.144
REMARK INTER + INTRA:         -13.750
REMARK INTER:                 -11.888
REMARK INTRA:                  -1.863
REMARK UNBOUND:                -2.639
REMARK SMILES CC[C@H](C)[C@H]1O[C@]2(CC[C@@H]1C)C[C@@H]1C[C@@H](C/C=C(\C)[C@@H](O[C@H]3C[C@H](OC)[C@@H](O[C@H]4C[C@H](OC)[C@@H](O)[C@H](C)O4)[C@H](C)O3)[C@@H](C)/C=C/C=C3\CO[C@@H]4[C@H](O)C(C)=C[C@@H](C(=O)O1)[C@]34O)O2
REMARK SMILES IDX 41 1 22 2 27 3 24 4 23 5 39 6 40 7 21 8 20 9 6 10 7 11 5 12
REMARK SMILES IDX 62 13 8 14 12 15 10 16 15 17 9 18 13 19 14 20 16 21 59 22
REMARK SMILES IDX 17 23 57 24 18 25 58 26 56 27 60 28 55 29 42 30 50 31 47 32
REMARK SMILES IDX 53 33 44 34 49 35 51 36 48 37 46 38 45 39 11 40 19 41 43 42
REMARK SMILES IDX 54 43 3 44 4 45 2 46 1 47 61 48 52 50 25 52 26 53 28 54
REMARK SMILES IDX 29 55 38 56 30 57 36 58 31 59 34 60 37 61 32 62 33 63 35 64
REMARK H PARENT 61 49 52 51 35 65
ROOT
ATOM      1  O   UNL     1     -21.062   9.840 -14.377  1.00  0.00    -0.347 OA
ATOM      2  C   UNL     1     -21.764   8.872 -13.600  1.00  0.00    +0.253 C 
ATOM      3  C   UNL     1     -23.065  11.242 -14.060  1.00  0.00    +0.179 C 
ATOM      4  C   UNL     1     -23.401  10.564 -12.711  1.00  0.00    +0.154 C 
ATOM      5  C   UNL     1     -22.380   9.487 -12.344  1.00  0.00    +0.097 C 
ATOM      6  C   UNL     1     -21.547  11.184 -14.290  1.00  0.00    +0.150 C 
ATOM      7  C   UNL     1     -21.136  11.890 -15.581  1.00  0.00    +0.041 C 
ENDROOT
BRANCH   2   8
ATOM      8  O   UNL     1     -20.838   7.873 -13.175  1.00  0.00    -0.344 OA
BRANCH   8   9
ATOM      9  C   UNL     1     -20.976   6.588 -13.808  1.00  0.00    +0.153 C 
ATOM     10  O   UNL     1     -22.864   9.878 -19.912  1.00  0.00    -0.346 OA
ATOM     11  C   UNL     1     -23.159   8.547 -20.355  1.00  0.00    +0.172 C 
ATOM     12  C   UNL     1     -21.813  10.511 -20.646  1.00  0.00    +0.127 C 
ATOM     13  O   UNL     1     -22.272   7.594 -19.748  1.00  0.00    -0.346 OA
ATOM     14  C   UNL     1     -22.985   8.403 -21.882  1.00  0.00    +0.066 C 
ATOM     15  C   UNL     1     -24.614   8.239 -19.961  1.00  0.00    +0.111 C 
ATOM     16  C   UNL     1     -22.321  10.829 -22.076  1.00  0.00    +0.015 C 
ATOM     17  C   UNL     1     -22.322   7.584 -18.316  1.00  0.00    +0.129 C 
ATOM     18  C   UNL     1     -23.254   9.719 -22.596  1.00  0.00    +0.011 C 
ATOM     19  C   UNL     1     -24.761   8.216 -18.446  1.00  0.00    +0.184 C 
ATOM     20  C   UNL     1     -23.736   7.264 -17.854  1.00  0.00    +0.078 C 
ATOM     21  C   UNL     1     -21.306   6.541 -17.801  1.00  0.00    +0.059 C 
ATOM     22  O   UNL     1     -26.037   7.678 -18.050  1.00  0.00    -0.462 OA
ATOM     23  C   UNL     1     -21.413   6.297 -16.313  1.00  0.00    -0.023 C 
ATOM     24  C   UNL     1     -27.072   8.546 -17.860  1.00  0.00    +0.316 C 
ATOM     25  C   UNL     1     -20.673   6.814 -15.309  1.00  0.00    -0.048 C 
ATOM     26  O   UNL     1     -27.067   9.720 -18.195  1.00  0.00    -0.251 OA
ATOM     27  C   UNL     1     -28.211   7.790 -17.177  1.00  0.00    +0.161 C 
ATOM     28  C   UNL     1     -28.073   7.852 -15.631  1.00  0.00    +0.134 C 
ATOM     29  C   UNL     1     -29.565   8.231 -17.678  1.00  0.00    -0.007 C 
ATOM     30  C   UNL     1     -22.367   5.946 -13.439  1.00  0.00    +0.042 C 
ATOM     31  C   UNL     1     -29.280   7.195 -14.963  1.00  0.00    +0.188 C 
ATOM     32  C   UNL     1     -27.011   6.908 -15.112  1.00  0.00    -0.009 C 
ATOM     33  C   UNL     1     -30.675   8.163 -16.921  1.00  0.00    -0.045 C 
ATOM     34  C   UNL     1     -23.548   6.821 -13.829  1.00  0.00    -0.021 C 
ATOM     35  O   UNL     1     -29.077   5.775 -15.181  1.00  0.00    -0.367 OA
ATOM     36  C   UNL     1     -30.643   7.689 -15.488  1.00  0.00    +0.172 C 
ATOM     37  C   UNL     1     -27.657   5.555 -14.997  1.00  0.00    +0.195 C 
ATOM     38  C   UNL     1     -25.771   7.259 -14.730  1.00  0.00    +0.004 C 
ATOM     39  C   UNL     1     -24.736   6.363 -14.261  1.00  0.00    -0.004 C 
ATOM     40  C   UNL     1     -21.149  11.057 -23.035  1.00  0.00    +0.010 C 
ATOM     41  C   UNL     1     -19.463   7.680 -15.570  1.00  0.00    +0.042 C 
ATOM     42  C   UNL     1     -22.480   5.603 -11.951  1.00  0.00    +0.015 C 
ATOM     43  C   UNL     1     -32.012   8.611 -17.445  1.00  0.00    +0.042 C 
BRANCH  12  44
ATOM     44  C   UNL     1     -21.322  11.754 -19.852  1.00  0.00    +0.015 C 
ATOM     45  C   UNL     1     -22.414  12.350 -18.949  1.00  0.00    +0.010 C 
BRANCH  44  46
ATOM     46  C   UNL     1     -20.094  11.441 -18.964  1.00  0.00    +0.002 C 
ATOM     47  C   UNL     1     -19.407  10.122 -19.292  1.00  0.00    +0.004 C 
ENDBRANCH  44  46
ENDBRANCH  12  44
BRANCH  28  48
ATOM     48  O   UNL     1     -27.899   9.178 -15.148  1.00  0.00    -0.381 OA
ATOM     49  H   UNL     1     -26.949   9.392 -15.161  1.00  0.00    +0.212 HD
ENDBRANCH  28  48
BRANCH  36  50
ATOM     50  O   UNL     1     -31.614   6.653 -15.321  1.00  0.00    -0.386 OA
ATOM     51  H   UNL     1     -31.796   6.628 -14.361  1.00  0.00    +0.211 HD
ENDBRANCH  36  50
ENDBRANCH   8   9
ENDBRANCH   2   8
BRANCH   4  52
ATOM     52  O   UNL     1     -24.714   9.977 -12.831  1.00  0.00    -0.378 OA
ATOM     53  C   UNL     1     -25.704  10.667 -12.076  1.00  0.00    +0.195 C 
ENDBRANCH   4  52
BRANCH   3  54
ATOM     54  O   UNL     1     -23.488  12.613 -14.013  1.00  0.00    -0.344 OA
BRANCH  54  55
ATOM     55  C   UNL     1     -24.333  12.973 -15.111  1.00  0.00    +0.253 C 
ATOM     56  O   UNL     1     -23.635  13.914 -15.924  1.00  0.00    -0.347 OA
ATOM     57  C   UNL     1     -25.624  13.521 -14.505  1.00  0.00    +0.097 C 
ATOM     58  C   UNL     1     -24.442  14.836 -16.655  1.00  0.00    +0.149 C 
ATOM     59  C   UNL     1     -25.540  15.031 -14.347  1.00  0.00    +0.154 C 
ATOM     60  C   UNL     1     -25.318  15.697 -15.719  1.00  0.00    +0.172 C 
ATOM     61  C   UNL     1     -25.244  14.120 -17.741  1.00  0.00    +0.041 C 
BRANCH  59  62
ATOM     62  O   UNL     1     -26.784  15.522 -13.813  1.00  0.00    -0.378 OA
ATOM     63  C   UNL     1     -27.654  16.023 -14.820  1.00  0.00    +0.195 C 
ENDBRANCH  59  62
BRANCH  60  64
ATOM     64  O   UNL     1     -24.671  16.964 -15.482  1.00  0.00    -0.388 OA
ATOM     65  H   UNL     1     -23.928  17.034 -16.103  1.00  0.00    +0.211 HD
ENDBRANCH  60  64
ENDBRANCH  54  55
ENDBRANCH   3  54
TORSDOF 11
ENDMDL
MODEL 8
REMARK VINA RESULT:    -7.062      3.913      8.181
REMARK INTER + INTRA:         -13.623
REMARK INTER:                 -12.076
REMARK INTRA:                  -1.547
REMARK UNBOUND:                -2.639
REMARK SMILES CC[C@H](C)[C@H]1O[C@]2(CC[C@@H]1C)C[C@@H]1C[C@@H](C/C=C(\C)[C@@H](O[C@H]3C[C@H](OC)[C@@H](O[C@H]4C[C@H](OC)[C@@H](O)[C@H](C)O4)[C@H](C)O3)[C@@H](C)/C=C/C=C3\CO[C@@H]4[C@H](O)C(C)=C[C@@H](C(=O)O1)[C@]34O)O2
REMARK SMILES IDX 41 1 22 2 27 3 24 4 23 5 39 6 40 7 21 8 20 9 6 10 7 11 5 12
REMARK SMILES IDX 62 13 8 14 12 15 10 16 15 17 9 18 13 19 14 20 16 21 59 22
REMARK SMILES IDX 17 23 57 24 18 25 58 26 56 27 60 28 55 29 42 30 50 31 47 32
REMARK SMILES IDX 53 33 44 34 49 35 51 36 48 37 46 38 45 39 11 40 19 41 43 42
REMARK SMILES IDX 54 43 3 44 4 45 2 46 1 47 61 48 52 50 25 52 26 53 28 54
REMARK SMILES IDX 29 55 38 56 30 57 36 58 31 59 34 60 37 61 32 62 33 63 35 64
REMARK H PARENT 61 49 52 51 35 65
ROOT
ATOM      1  O   UNL     1     -18.020   9.536 -19.453  1.00  0.00    -0.347 OA
ATOM      2  C   UNL     1     -19.170   9.195 -18.681  1.00  0.00    +0.253 C 
ATOM      3  C   UNL     1     -17.245   7.258 -18.921  1.00  0.00    +0.179 C 
ATOM      4  C   UNL     1     -18.692   6.728 -18.798  1.00  0.00    +0.154 C 
ATOM      5  C   UNL     1     -19.725   7.824 -19.062  1.00  0.00    +0.097 C 
ATOM      6  C   UNL     1     -17.220   8.438 -19.903  1.00  0.00    +0.150 C 
ATOM      7  C   UNL     1     -15.807   8.976 -20.119  1.00  0.00    +0.041 C 
ENDROOT
BRANCH   2   8
ATOM      8  O   UNL     1     -20.193  10.155 -18.943  1.00  0.00    -0.344 OA
BRANCH   8   9
ATOM      9  C   UNL     1     -19.749  11.519 -19.064  1.00  0.00    +0.153 C 
ATOM     10  O   UNL     1     -25.438  13.633 -15.214  1.00  0.00    -0.346 OA
ATOM     11  C   UNL     1     -25.001  14.948 -15.581  1.00  0.00    +0.172 C 
ATOM     12  C   UNL     1     -25.386  13.378 -13.808  1.00  0.00    +0.127 C 
ATOM     13  O   UNL     1     -23.571  14.998 -15.708  1.00  0.00    -0.346 OA
ATOM     14  C   UNL     1     -25.388  15.995 -14.515  1.00  0.00    +0.066 C 
ATOM     15  C   UNL     1     -25.662  15.298 -16.925  1.00  0.00    +0.111 C 
ATOM     16  C   UNL     1     -26.487  14.214 -13.106  1.00  0.00    +0.015 C 
ATOM     17  C   UNL     1     -23.041  14.090 -16.681  1.00  0.00    +0.129 C 
ATOM     18  C   UNL     1     -26.655  15.591 -13.777  1.00  0.00    +0.011 C 
ATOM     19  C   UNL     1     -25.159  14.371 -18.023  1.00  0.00    +0.184 C 
ATOM     20  C   UNL     1     -23.641  14.394 -18.046  1.00  0.00    +0.078 C 
ATOM     21  C   UNL     1     -21.503  14.230 -16.691  1.00  0.00    +0.059 C 
ATOM     22  O   UNL     1     -25.556  14.837 -19.327  1.00  0.00    -0.462 OA
ATOM     23  C   UNL     1     -20.848  13.467 -17.820  1.00  0.00    -0.023 C 
ATOM     24  C   UNL     1     -26.726  14.369 -19.850  1.00  0.00    +0.316 C 
ATOM     25  C   UNL     1     -20.263  12.251 -17.801  1.00  0.00    -0.048 C 
ATOM     26  O   UNL     1     -27.570  13.748 -19.224  1.00  0.00    -0.251 OA
ATOM     27  C   UNL     1     -26.783  14.768 -21.324  1.00  0.00    +0.161 C 
ATOM     28  C   UNL     1     -26.124  13.684 -22.221  1.00  0.00    +0.134 C 
ATOM     29  C   UNL     1     -28.181  15.138 -21.758  1.00  0.00    -0.007 C 
ATOM     30  C   UNL     1     -20.172  12.107 -20.463  1.00  0.00    +0.042 C 
ATOM     31  C   UNL     1     -26.294  14.040 -23.697  1.00  0.00    +0.188 C 
ATOM     32  C   UNL     1     -24.612  13.739 -22.169  1.00  0.00    -0.009 C 
ATOM     33  C   UNL     1     -28.609  14.990 -23.024  1.00  0.00    -0.045 C 
ATOM     34  C   UNL     1     -21.673  12.049 -20.704  1.00  0.00    -0.021 C 
ATOM     35  O   UNL     1     -25.372  15.140 -23.906  1.00  0.00    -0.367 OA
ATOM     36  C   UNL     1     -27.740  14.390 -24.102  1.00  0.00    +0.172 C 
ATOM     37  C   UNL     1     -24.187  14.801 -23.145  1.00  0.00    +0.195 C 
ATOM     38  C   UNL     1     -23.823  12.912 -21.462  1.00  0.00    +0.004 C 
ATOM     39  C   UNL     1     -22.380  12.972 -21.379  1.00  0.00    -0.004 C 
ATOM     40  C   UNL     1     -26.192  14.363 -11.611  1.00  0.00    +0.010 C 
ATOM     41  C   UNL     1     -20.059  11.481 -16.517  1.00  0.00    +0.042 C 
ATOM     42  C   UNL     1     -19.461  11.416 -21.630  1.00  0.00    +0.015 C 
ATOM     43  C   UNL     1     -30.009  15.365 -23.429  1.00  0.00    +0.042 C 
BRANCH  12  44
ATOM     44  C   UNL     1     -25.498  11.847 -13.569  1.00  0.00    +0.015 C 
ATOM     45  C   UNL     1     -25.709  11.057 -14.871  1.00  0.00    +0.010 C 
BRANCH  44  46
ATOM     46  C   UNL     1     -24.249  11.266 -12.862  1.00  0.00    +0.002 C 
ATOM     47  C   UNL     1     -24.427  11.040 -11.367  1.00  0.00    +0.004 C 
ENDBRANCH  44  46
ENDBRANCH  12  44
BRANCH  28  48
ATOM     48  O   UNL     1     -26.625  12.379 -21.963  1.00  0.00    -0.381 OA
ATOM     49  H   UNL     1     -27.500  12.458 -21.545  1.00  0.00    +0.212 HD
ENDBRANCH  28  48
BRANCH  36  50
ATOM     50  O   UNL     1     -27.711  15.278 -25.222  1.00  0.00    -0.386 OA
ATOM     51  H   UNL     1     -27.477  14.716 -25.986  1.00  0.00    +0.211 HD
ENDBRANCH  36  50
ENDBRANCH   8   9
ENDBRANCH   2   8
BRANCH   4  52
ATOM     52  O   UNL     1     -18.856   6.207 -17.463  1.00  0.00    -0.378 OA
ATOM     53  C   UNL     1     -19.686   5.051 -17.412  1.00  0.00    +0.195 C 
ENDBRANCH   4  52
BRANCH   3  54
ATOM     54  O   UNL     1     -16.402   6.207 -19.417  1.00  0.00    -0.344 OA
BRANCH  54  55
ATOM     55  C   UNL     1     -15.518   5.684 -18.420  1.00  0.00    +0.253 C 
ATOM     56  O   UNL     1     -14.179   5.810 -18.896  1.00  0.00    -0.347 OA
ATOM     57  C   UNL     1     -15.948   4.240 -18.170  1.00  0.00    +0.097 C 
ATOM     58  C   UNL     1     -13.243   4.851 -18.406  1.00  0.00    +0.149 C 
ATOM     59  C   UNL     1     -15.166   3.288 -19.061  1.00  0.00    +0.154 C 
ATOM     60  C   UNL     1     -13.657   3.409 -18.773  1.00  0.00    +0.172 C 
ATOM     61  C   UNL     1     -12.991   5.044 -16.912  1.00  0.00    +0.041 C 
BRANCH  59  62
ATOM     62  O   UNL     1     -15.565   1.934 -18.775  1.00  0.00    -0.378 OA
ATOM     63  C   UNL     1     -14.967   1.426 -17.589  1.00  0.00    +0.195 C 
ENDBRANCH  59  62
BRANCH  60  64
ATOM     64  O   UNL     1     -12.958   2.993 -19.963  1.00  0.00    -0.388 OA
ATOM     65  H   UNL     1     -13.410   3.392 -20.724  1.00  0.00    +0.211 HD
ENDBRANCH  60  64
ENDBRANCH  54  55
ENDBRANCH   3  54
TORSDOF 11
ENDMDL
MODEL 9
REMARK VINA RESULT:    -6.833      2.360      8.197
REMARK INTER + INTRA:         -13.267
REMARK INTER:                 -11.296
REMARK INTRA:                  -1.971
REMARK UNBOUND:                -2.639
REMARK SMILES CC[C@H](C)[C@H]1O[C@]2(CC[C@@H]1C)C[C@@H]1C[C@@H](C/C=C(\C)[C@@H](O[C@H]3C[C@H](OC)[C@@H](O[C@H]4C[C@H](OC)[C@@H](O)[C@H](C)O4)[C@H](C)O3)[C@@H](C)/C=C/C=C3\CO[C@@H]4[C@H](O)C(C)=C[C@@H](C(=O)O1)[C@]34O)O2
REMARK SMILES IDX 41 1 22 2 27 3 24 4 23 5 39 6 40 7 21 8 20 9 6 10 7 11 5 12
REMARK SMILES IDX 62 13 8 14 12 15 10 16 15 17 9 18 13 19 14 20 16 21 59 22
REMARK SMILES IDX 17 23 57 24 18 25 58 26 56 27 60 28 55 29 42 30 50 31 47 32
REMARK SMILES IDX 53 33 44 34 49 35 51 36 48 37 46 38 45 39 11 40 19 41 43 42
REMARK SMILES IDX 54 43 3 44 4 45 2 46 1 47 61 48 52 50 25 52 26 53 28 54
REMARK SMILES IDX 29 55 38 56 30 57 36 58 31 59 34 60 37 61 32 62 33 63 35 64
REMARK H PARENT 61 49 52 51 35 65
ROOT
ATOM      1  O   UNL     1     -21.172  12.168 -17.300  1.00  0.00    -0.347 OA
ATOM      2  C   UNL     1     -20.426  11.083 -17.846  1.00  0.00    +0.253 C 
ATOM      3  C   UNL     1     -21.251  10.806 -15.246  1.00  0.00    +0.179 C 
ATOM      4  C   UNL     1     -19.912  10.110 -15.583  1.00  0.00    +0.154 C 
ATOM      5  C   UNL     1     -19.321  10.617 -16.899  1.00  0.00    +0.097 C 
ATOM      6  C   UNL     1     -21.263  12.209 -15.872  1.00  0.00    +0.150 C 
ATOM      7  C   UNL     1     -22.536  12.980 -15.529  1.00  0.00    +0.041 C 
ENDROOT
BRANCH   2   8
ATOM      8  O   UNL     1     -19.797  11.525 -19.049  1.00  0.00    -0.344 OA
BRANCH   8   9
ATOM      9  C   UNL     1     -20.410  11.079 -20.272  1.00  0.00    +0.153 C 
ATOM     10  O   UNL     1     -26.819  13.060 -17.692  1.00  0.00    -0.346 OA
ATOM     11  C   UNL     1     -27.319  12.397 -18.860  1.00  0.00    +0.172 C 
ATOM     12  C   UNL     1     -27.088  14.464 -17.665  1.00  0.00    +0.127 C 
ATOM     13  O   UNL     1     -26.395  12.513 -19.954  1.00  0.00    -0.346 OA
ATOM     14  C   UNL     1     -28.651  13.015 -19.340  1.00  0.00    +0.066 C 
ATOM     15  C   UNL     1     -27.528  10.916 -18.500  1.00  0.00    +0.111 C 
ATOM     16  C   UNL     1     -28.608  14.679 -17.444  1.00  0.00    +0.015 C 
ATOM     17  C   UNL     1     -25.099  11.965 -19.680  1.00  0.00    +0.129 C 
ATOM     18  C   UNL     1     -29.436  13.607 -18.179  1.00  0.00    +0.011 C 
ATOM     19  C   UNL     1     -26.194  10.253 -18.185  1.00  0.00    +0.184 C 
ATOM     20  C   UNL     1     -25.228  10.490 -19.334  1.00  0.00    +0.078 C 
ATOM     21  C   UNL     1     -24.207  12.183 -20.922  1.00  0.00    +0.059 C 
ATOM     22  O   UNL     1     -26.326   8.822 -18.102  1.00  0.00    -0.462 OA
ATOM     23  C   UNL     1     -22.878  11.468 -20.826  1.00  0.00    -0.023 C 
ATOM     24  C   UNL     1     -26.575   8.267 -16.880  1.00  0.00    +0.316 C 
ATOM     25  C   UNL     1     -21.673  11.954 -20.462  1.00  0.00    -0.048 C 
ATOM     26  O   UNL     1     -26.901   8.893 -15.884  1.00  0.00    -0.251 OA
ATOM     27  C   UNL     1     -26.385   6.755 -16.994  1.00  0.00    +0.161 C 
ATOM     28  C   UNL     1     -24.911   6.355 -16.707  1.00  0.00    +0.134 C 
ATOM     29  C   UNL     1     -27.388   5.993 -16.162  1.00  0.00    -0.007 C 
ATOM     30  C   UNL     1     -20.610   9.517 -20.242  1.00  0.00    +0.042 C 
ATOM     31  C   UNL     1     -24.764   4.834 -16.707  1.00  0.00    +0.188 C 
ATOM     32  C   UNL     1     -23.999   6.651 -17.877  1.00  0.00    -0.009 C 
ATOM     33  C   UNL     1     -27.130   4.775 -15.652  1.00  0.00    -0.045 C 
ATOM     34  C   UNL     1     -21.450   9.046 -19.064  1.00  0.00    -0.021 C 
ATOM     35  O   UNL     1     -24.859   4.469 -18.109  1.00  0.00    -0.367 OA
ATOM     36  C   UNL     1     -25.793   4.097 -15.828  1.00  0.00    +0.172 C 
ATOM     37  C   UNL     1     -24.125   5.491 -18.825  1.00  0.00    +0.195 C 
ATOM     38  C   UNL     1     -23.164   7.700 -17.972  1.00  0.00    +0.004 C 
ATOM     39  C   UNL     1     -22.308   8.012 -19.096  1.00  0.00    -0.004 C 
ATOM     40  C   UNL     1     -29.030  16.087 -17.871  1.00  0.00    +0.010 C 
ATOM     41  C   UNL     1     -21.449  13.425 -20.199  1.00  0.00    +0.042 C 
ATOM     42  C   UNL     1     -19.283   8.754 -20.233  1.00  0.00    +0.015 C 
ATOM     43  C   UNL     1     -28.147   4.039 -14.825  1.00  0.00    +0.042 C 
BRANCH  12  44
ATOM     44  C   UNL     1     -26.187  15.129 -16.588  1.00  0.00    +0.015 C 
ATOM     45  C   UNL     1     -25.988  14.240 -15.349  1.00  0.00    +0.010 C 
BRANCH  44  46
ATOM     46  C   UNL     1     -24.786  15.497 -17.134  1.00  0.00    +0.002 C 
ATOM     47  C   UNL     1     -23.963  16.373 -16.200  1.00  0.00    +0.004 C 
ENDBRANCH  44  46
ENDBRANCH  12  44
BRANCH  28  48
ATOM     48  O   UNL     1     -24.422   6.901 -15.489  1.00  0.00    -0.381 OA
ATOM     49  H   UNL     1     -23.637   6.396 -15.214  1.00  0.00    +0.212 HD
ENDBRANCH  28  48
BRANCH  36  50
ATOM     50  O   UNL     1     -26.005   2.785 -16.355  1.00  0.00    -0.386 OA
ATOM     51  H   UNL     1     -26.759   2.425 -15.846  1.00  0.00    +0.211 HD
ENDBRANCH  36  50
ENDBRANCH   8   9
ENDBRANCH   2   8
BRANCH   4  52
ATOM     52  O   UNL     1     -20.166   8.693 -15.671  1.00  0.00    -0.378 OA
ATOM     53  C   UNL     1     -19.104   7.973 -16.291  1.00  0.00    +0.195 C 
ENDBRANCH   4  52
BRANCH   3  54
ATOM     54  O   UNL     1     -21.375  10.919 -13.820  1.00  0.00    -0.344 OA
BRANCH  54  55
ATOM     55  C   UNL     1     -22.683  10.586 -13.346  1.00  0.00    +0.253 C 
ATOM     56  O   UNL     1     -23.010  11.470 -12.276  1.00  0.00    -0.347 OA
ATOM     57  C   UNL     1     -22.636   9.115 -12.937  1.00  0.00    +0.097 C 
ATOM     58  C   UNL     1     -23.915  10.964 -11.295  1.00  0.00    +0.149 C 
ATOM     59  C   UNL     1     -22.297   8.983 -11.461  1.00  0.00    +0.154 C 
ATOM     60  C   UNL     1     -23.360   9.699 -10.605  1.00  0.00    +0.172 C 
ATOM     61  C   UNL     1     -25.310  10.765 -11.885  1.00  0.00    +0.041 C 
BRANCH  59  62
ATOM     62  O   UNL     1     -22.301   7.589 -11.096  1.00  0.00    -0.378 OA
ATOM     63  C   UNL     1     -21.950   6.738 -12.180  1.00  0.00    +0.195 C 
ENDBRANCH  59  62
BRANCH  60  64
ATOM     64  O   UNL     1     -22.733  10.064  -9.358  1.00  0.00    -0.388 OA
ATOM     65  H   UNL     1     -22.698  11.034  -9.321  1.00  0.00    +0.211 HD
ENDBRANCH  60  64
ENDBRANCH  54  55
ENDBRANCH   3  54
TORSDOF 11
ENDMDL
