MODEL 1
REMARK VINA RESULT:    -7.993      0.000      0.000
REMARK INTER + INTRA:         -11.910
REMARK INTER:                 -11.264
REMARK INTRA:                  -0.646
REMARK UNBOUND:                -0.646
REMARK SMILES CC(=O)N1CCN(c2ccc(OC[C@H]3CO[C@](Cn4ccnc4)(c4ccc(Cl)cc4Cl)O3)cc2)CC1
REMARK SMILES IDX 13 1 14 2 17 3 32 4 16 5 15 6 24 7 30 8 29 9 25 10 27 11
REMARK SMILES IDX 26 12 31 13 28 14 18 15 19 16 20 17 23 18 21 19 22 20 12 21
REMARK SMILES IDX 11 22 10 23 33 24 9 25 34 26 8 27 7 28 6 29 35 30 5 31 36 32
REMARK SMILES IDX 4 33 2 34 3 35 1 36
REMARK H PARENT
ROOT
ATOM      1  C   UNL     1     -12.676 -17.041  21.046  1.00  0.00    +0.264 C 
ENDROOT
BRANCH   1   2
ATOM      2  C   UNL     1     -12.004 -17.352  19.713  1.00  0.00    +0.185 C 
ATOM      3  C   UNL     1     -10.221 -18.430  18.778  1.00  0.00    +0.215 C 
ATOM      4  O   UNL     1     -11.234 -18.559  19.788  1.00  0.00    -0.335 OA
ATOM      5  O   UNL     1     -10.115 -17.031  18.415  1.00  0.00    -0.342 OA
ATOM      6  C   UNL     1     -10.972 -16.330  19.320  1.00  0.00    +0.200 C 
BRANCH   3   7
ATOM      7  C   UNL     1     -10.630 -19.239  17.536  1.00  0.00    +0.032 A 
ATOM      8  C   UNL     1     -10.267 -18.875  16.222  1.00  0.00    +0.051 A 
ATOM      9  C   UNL     1     -10.665 -19.647  15.122  1.00  0.00    +0.041 A 
ATOM     10  C   UNL     1     -11.424 -20.398  17.690  1.00  0.00    +0.012 A 
ATOM     11  C   UNL     1     -11.437 -20.787  15.312  1.00  0.00    +0.042 A 
ATOM     12  C   UNL     1     -11.821 -21.165  16.591  1.00  0.00    +0.021 A 
ATOM     13 Cl   UNL     1      -9.337 -17.463  15.854  1.00  0.00    -0.084 Cl
ATOM     14 Cl   UNL     1     -11.924 -21.729  13.958  1.00  0.00    -0.084 Cl
ENDBRANCH   3   7
BRANCH   3  15
ATOM     15  C   UNL     1      -8.850 -18.917  19.299  1.00  0.00    +0.194 C 
BRANCH  15  16
ATOM     16  N   UNL     1      -8.315 -18.093  20.370  1.00  0.00    -0.332 N 
ATOM     17  C   UNL     1      -8.663 -18.152  21.690  1.00  0.00    +0.107 A 
ATOM     18  C   UNL     1      -7.352 -17.134  20.237  1.00  0.00    +0.199 A 
ATOM     19  C   UNL     1      -7.894 -17.191  22.302  1.00  0.00    +0.130 A 
ATOM     20  N   UNL     1      -7.090 -16.559  21.389  1.00  0.00    -0.245 NA
ENDBRANCH  15  16
ENDBRANCH   3  15
ENDBRANCH   1   2
BRANCH   1  21
ATOM     21  O   UNL     1     -12.018 -17.799  22.066  1.00  0.00    -0.491 OA
BRANCH  21  22
ATOM     22  C   UNL     1     -12.169 -17.368  23.354  1.00  0.00    +0.119 A 
ATOM     23  C   UNL     1     -13.441 -17.549  23.887  1.00  0.00    +0.048 A 
ATOM     24  C   UNL     1     -11.191 -16.782  24.147  1.00  0.00    +0.048 A 
ATOM     25  C   UNL     1     -13.733 -17.149  25.199  1.00  0.00    +0.030 A 
ATOM     26  C   UNL     1     -11.493 -16.386  25.461  1.00  0.00    +0.030 A 
ATOM     27  C   UNL     1     -12.766 -16.560  26.026  1.00  0.00    +0.037 A 
BRANCH  27  28
ATOM     28  N   UNL     1     -13.046 -16.155  27.324  1.00  0.00    -0.368 N 
ATOM     29  C   UNL     1     -12.039 -16.243  28.392  1.00  0.00    +0.138 C 
ATOM     30  C   UNL     1     -14.261 -15.364  27.607  1.00  0.00    +0.138 C 
ATOM     31  C   UNL     1     -12.698 -16.252  29.784  1.00  0.00    +0.141 C 
ATOM     32  C   UNL     1     -14.076 -14.424  28.813  1.00  0.00    +0.141 C 
ATOM     33  N   UNL     1     -13.604 -15.122  30.010  1.00  0.00    -0.339 N 
ATOM     34  C   UNL     1     -14.032 -14.696  31.255  1.00  0.00    +0.219 C 
ATOM     35  O   UNL     1     -14.756 -13.713  31.408  1.00  0.00    -0.275 OA
ATOM     36  C   UNL     1     -13.561 -15.490  32.447  1.00  0.00    +0.114 C 
ENDBRANCH  27  28
ENDBRANCH  21  22
ENDBRANCH   1  21
TORSDOF 7
ENDMDL
MODEL 2
REMARK VINA RESULT:    -7.724      2.629      3.946
REMARK INTER + INTRA:         -11.531
REMARK INTER:                 -10.836
REMARK INTRA:                  -0.695
REMARK UNBOUND:                -0.646
REMARK SMILES CC(=O)N1CCN(c2ccc(OC[C@H]3CO[C@](Cn4ccnc4)(c4ccc(Cl)cc4Cl)O3)cc2)CC1
REMARK SMILES IDX 13 1 14 2 17 3 32 4 16 5 15 6 24 7 30 8 29 9 25 10 27 11
REMARK SMILES IDX 26 12 31 13 28 14 18 15 19 16 20 17 23 18 21 19 22 20 12 21
REMARK SMILES IDX 11 22 10 23 33 24 9 25 34 26 8 27 7 28 6 29 35 30 5 31 36 32
REMARK SMILES IDX 4 33 2 34 3 35 1 36
REMARK H PARENT
ROOT
ATOM      1  C   UNL     1     -10.806 -16.896  21.805  1.00  0.00    +0.264 C 
ENDROOT
BRANCH   1   2
ATOM      2  C   UNL     1     -11.151 -16.618  20.345  1.00  0.00    +0.185 C 
ATOM      3  C   UNL     1     -11.953 -17.596  18.444  1.00  0.00    +0.215 C 
ATOM      4  O   UNL     1     -12.150 -17.527  19.864  1.00  0.00    -0.335 OA
ATOM      5  O   UNL     1     -10.625 -17.099  18.143  1.00  0.00    -0.342 OA
ATOM      6  C   UNL     1     -10.000 -16.874  19.409  1.00  0.00    +0.200 C 
BRANCH   3   7
ATOM      7  C   UNL     1     -12.991 -16.707  17.739  1.00  0.00    +0.032 A 
ATOM      8  C   UNL     1     -14.337 -16.615  18.152  1.00  0.00    +0.051 A 
ATOM      9  C   UNL     1     -15.246 -15.789  17.476  1.00  0.00    +0.041 A 
ATOM     10  C   UNL     1     -12.608 -15.950  16.609  1.00  0.00    +0.012 A 
ATOM     11  C   UNL     1     -14.831 -15.050  16.374  1.00  0.00    +0.042 A 
ATOM     12  C   UNL     1     -13.516 -15.129  15.935  1.00  0.00    +0.021 A 
ATOM     13 Cl   UNL     1     -14.981 -17.508  19.487  1.00  0.00    -0.084 Cl
ATOM     14 Cl   UNL     1     -15.951 -14.041  15.547  1.00  0.00    -0.084 Cl
ENDBRANCH   3   7
BRANCH   3  15
ATOM     15  C   UNL     1     -12.071 -19.051  17.935  1.00  0.00    +0.194 C 
BRANCH  15  16
ATOM     16  N   UNL     1     -11.102 -19.380  16.903  1.00  0.00    -0.332 N 
ATOM     17  C   UNL     1     -11.264 -19.216  15.556  1.00  0.00    +0.107 A 
ATOM     18  C   UNL     1      -9.852 -19.889  17.112  1.00  0.00    +0.199 A 
ATOM     19  C   UNL     1     -10.088 -19.662  15.001  1.00  0.00    +0.130 A 
ATOM     20  N   UNL     1      -9.221 -20.086  15.976  1.00  0.00    -0.245 NA
ENDBRANCH  15  16
ENDBRANCH   3  15
ENDBRANCH   1   2
BRANCH   1  21
ATOM     21  O   UNL     1     -11.896 -17.613  22.393  1.00  0.00    -0.491 OA
BRANCH  21  22
ATOM     22  C   UNL     1     -12.266 -17.252  23.657  1.00  0.00    +0.119 A 
ATOM     23  C   UNL     1     -11.264 -16.652  24.413  1.00  0.00    +0.048 A 
ATOM     24  C   UNL     1     -13.518 -17.431  24.233  1.00  0.00    +0.048 A 
ATOM     25  C   UNL     1     -11.509 -16.235  25.729  1.00  0.00    +0.030 A 
ATOM     26  C   UNL     1     -13.754 -17.008  25.551  1.00  0.00    +0.030 A 
ATOM     27  C   UNL     1     -12.763 -16.396  26.335  1.00  0.00    +0.037 A 
BRANCH  27  28
ATOM     28  N   UNL     1     -13.014 -15.993  27.639  1.00  0.00    -0.368 N 
ATOM     29  C   UNL     1     -11.982 -16.075  28.683  1.00  0.00    +0.138 C 
ATOM     30  C   UNL     1     -14.226 -15.209  27.951  1.00  0.00    +0.138 C 
ATOM     31  C   UNL     1     -12.608 -16.089  30.091  1.00  0.00    +0.141 C 
ATOM     32  C   UNL     1     -14.018 -14.268  29.152  1.00  0.00    +0.141 C 
ATOM     33  N   UNL     1     -13.515 -14.964  30.338  1.00  0.00    -0.339 N 
ATOM     34  C   UNL     1     -13.915 -14.540  31.592  1.00  0.00    +0.219 C 
ATOM     35  O   UNL     1     -14.641 -13.561  31.763  1.00  0.00    -0.275 OA
ATOM     36  C   UNL     1     -13.412 -15.332  32.773  1.00  0.00    +0.114 C 
ENDBRANCH  27  28
ENDBRANCH  21  22
ENDBRANCH   1  21
TORSDOF 7
ENDMDL
MODEL 3
REMARK VINA RESULT:    -7.676      8.740     13.409
REMARK INTER + INTRA:         -11.463
REMARK INTER:                 -10.913
REMARK INTRA:                  -0.551
REMARK UNBOUND:                -0.646
REMARK SMILES CC(=O)N1CCN(c2ccc(OC[C@H]3CO[C@](Cn4ccnc4)(c4ccc(Cl)cc4Cl)O3)cc2)CC1
REMARK SMILES IDX 13 1 14 2 17 3 32 4 16 5 15 6 24 7 30 8 29 9 25 10 27 11
REMARK SMILES IDX 26 12 31 13 28 14 18 15 19 16 20 17 23 18 21 19 22 20 12 21
REMARK SMILES IDX 11 22 10 23 33 24 9 25 34 26 8 27 7 28 6 29 35 30 5 31 36 32
REMARK SMILES IDX 4 33 2 34 3 35 1 36
REMARK H PARENT
ROOT
ATOM      1  C   UNL     1     -13.952  -9.088  24.536  1.00  0.00    +0.264 C 
ENDROOT
BRANCH   1   2
ATOM      2  C   UNL     1     -13.420 -10.054  25.590  1.00  0.00    +0.185 C 
ATOM      3  C   UNL     1     -13.832 -10.880  27.679  1.00  0.00    +0.215 C 
ATOM      4  O   UNL     1     -14.472 -10.522  26.444  1.00  0.00    -0.335 OA
ATOM      5  O   UNL     1     -12.530 -10.244  27.718  1.00  0.00    -0.342 OA
ATOM      6  C   UNL     1     -12.475  -9.401  26.564  1.00  0.00    +0.200 C 
BRANCH   3   7
ATOM      7  C   UNL     1     -13.646 -12.405  27.737  1.00  0.00    +0.032 A 
ATOM      8  C   UNL     1     -14.709 -13.305  27.957  1.00  0.00    +0.051 A 
ATOM      9  C   UNL     1     -14.488 -14.689  28.002  1.00  0.00    +0.041 A 
ATOM     10  C   UNL     1     -12.354 -12.956  27.585  1.00  0.00    +0.012 A 
ATOM     11  C   UNL     1     -13.205 -15.195  27.837  1.00  0.00    +0.042 A 
ATOM     12  C   UNL     1     -12.135 -14.335  27.631  1.00  0.00    +0.021 A 
ATOM     13 Cl   UNL     1     -16.344 -12.796  28.209  1.00  0.00    -0.084 Cl
ATOM     14 Cl   UNL     1     -12.939 -16.893  27.895  1.00  0.00    -0.084 Cl
ENDBRANCH   3   7
BRANCH   3  15
ATOM     15  C   UNL     1     -14.660 -10.401  28.894  1.00  0.00    +0.194 C 
BRANCH  15  16
ATOM     16  N   UNL     1     -13.852 -10.136  30.072  1.00  0.00    -0.332 N 
ATOM     17  C   UNL     1     -13.423  -8.912  30.502  1.00  0.00    +0.107 A 
ATOM     18  C   UNL     1     -13.407 -11.069  30.964  1.00  0.00    +0.199 A 
ATOM     19  C   UNL     1     -12.705  -9.170  31.646  1.00  0.00    +0.130 A 
ATOM     20  N   UNL     1     -12.694 -10.515  31.919  1.00  0.00    -0.245 NA
ENDBRANCH  15  16
ENDBRANCH   3  15
ENDBRANCH   1   2
BRANCH   1  21
ATOM     21  O   UNL     1     -14.489  -9.857  23.456  1.00  0.00    -0.491 OA
BRANCH  21  22
ATOM     22  C   UNL     1     -14.583  -9.240  22.241  1.00  0.00    +0.119 A 
ATOM     23  C   UNL     1     -15.214  -8.001  22.260  1.00  0.00    +0.048 A 
ATOM     24  C   UNL     1     -14.118  -9.732  21.027  1.00  0.00    +0.048 A 
ATOM     25  C   UNL     1     -15.380  -7.260  21.081  1.00  0.00    +0.030 A 
ATOM     26  C   UNL     1     -14.286  -8.982  19.852  1.00  0.00    +0.030 A 
ATOM     27  C   UNL     1     -14.916  -7.727  19.843  1.00  0.00    +0.037 A 
BRANCH  27  28
ATOM     28  N   UNL     1     -15.079  -7.006  18.669  1.00  0.00    -0.368 N 
ATOM     29  C   UNL     1     -16.140  -7.334  17.704  1.00  0.00    +0.138 C 
ATOM     30  C   UNL     1     -14.381  -5.717  18.488  1.00  0.00    +0.138 C 
ATOM     31  C   UNL     1     -15.812  -6.788  16.302  1.00  0.00    +0.141 C 
ATOM     32  C   UNL     1     -15.164  -4.753  17.576  1.00  0.00    +0.141 C 
ATOM     33  N   UNL     1     -15.518  -5.352  16.288  1.00  0.00    -0.339 N 
ATOM     34  C   UNL     1     -15.550  -4.556  15.157  1.00  0.00    +0.219 C 
ATOM     35  O   UNL     1     -15.342  -3.343  15.192  1.00  0.00    -0.275 OA
ATOM     36  C   UNL     1     -15.863  -5.239  13.850  1.00  0.00    +0.114 C 
ENDBRANCH  27  28
ENDBRANCH  21  22
ENDBRANCH   1  21
TORSDOF 7
ENDMDL
MODEL 4
REMARK VINA RESULT:    -7.666      6.055      7.219
REMARK INTER + INTRA:         -11.449
REMARK INTER:                 -10.598
REMARK INTRA:                  -0.852
REMARK UNBOUND:                -0.646
REMARK SMILES CC(=O)N1CCN(c2ccc(OC[C@H]3CO[C@](Cn4ccnc4)(c4ccc(Cl)cc4Cl)O3)cc2)CC1
REMARK SMILES IDX 13 1 14 2 17 3 32 4 16 5 15 6 24 7 30 8 29 9 25 10 27 11
REMARK SMILES IDX 26 12 31 13 28 14 18 15 19 16 20 17 23 18 21 19 22 20 12 21
REMARK SMILES IDX 11 22 10 23 33 24 9 25 34 26 8 27 7 28 6 29 35 30 5 31 36 32
REMARK SMILES IDX 4 33 2 34 3 35 1 36
REMARK H PARENT
ROOT
ATOM      1  C   UNL     1     -13.431 -16.739  15.115  1.00  0.00    +0.264 C 
ENDROOT
BRANCH   1   2
ATOM      2  C   UNL     1     -12.179 -17.561  14.824  1.00  0.00    +0.185 C 
ATOM      3  C   UNL     1     -11.051 -19.446  15.447  1.00  0.00    +0.215 C 
ATOM      4  O   UNL     1     -12.366 -18.937  15.180  1.00  0.00    -0.335 OA
ATOM      5  O   UNL     1     -10.164 -18.321  15.673  1.00  0.00    -0.342 OA
ATOM      6  C   UNL     1     -11.002 -17.162  15.673  1.00  0.00    +0.200 C 
BRANCH   3   7
ATOM      7  C   UNL     1     -10.551 -20.241  14.231  1.00  0.00    +0.032 A 
ATOM      8  C   UNL     1     -11.348 -21.179  13.540  1.00  0.00    +0.051 A 
ATOM      9  C   UNL     1     -10.846 -21.879  12.434  1.00  0.00    +0.041 A 
ATOM     10  C   UNL     1      -9.227 -20.056  13.773  1.00  0.00    +0.012 A 
ATOM     11  C   UNL     1      -9.541 -21.663  12.006  1.00  0.00    +0.042 A 
ATOM     12  C   UNL     1      -8.727 -20.757  12.672  1.00  0.00    +0.021 A 
ATOM     13 Cl   UNL     1     -12.974 -21.558  13.996  1.00  0.00    -0.084 Cl
ATOM     14 Cl   UNL     1      -8.930 -22.528  10.651  1.00  0.00    -0.084 Cl
ENDBRANCH   3   7
BRANCH   3  15
ATOM     15  C   UNL     1     -11.047 -20.345  16.705  1.00  0.00    +0.194 C 
BRANCH  15  16
ATOM     16  N   UNL     1     -10.919 -19.600  17.946  1.00  0.00    -0.332 N 
ATOM     17  C   UNL     1      -9.784 -19.457  18.693  1.00  0.00    +0.107 A 
ATOM     18  C   UNL     1     -11.912 -18.893  18.561  1.00  0.00    +0.199 A 
ATOM     19  C   UNL     1     -10.157 -18.673  19.759  1.00  0.00    +0.130 A 
ATOM     20  N   UNL     1     -11.484 -18.336  19.672  1.00  0.00    -0.245 NA
ENDBRANCH  15  16
ENDBRANCH   3  15
ENDBRANCH   1   2
BRANCH   1  21
ATOM     21  O   UNL     1     -13.687 -16.796  16.522  1.00  0.00    -0.491 OA
BRANCH  21  22
ATOM     22  C   UNL     1     -14.079 -15.637  17.129  1.00  0.00    +0.119 A 
ATOM     23  C   UNL     1     -13.074 -14.970  17.823  1.00  0.00    +0.048 A 
ATOM     24  C   UNL     1     -15.355 -15.089  17.114  1.00  0.00    +0.048 A 
ATOM     25  C   UNL     1     -13.342 -13.769  18.494  1.00  0.00    +0.030 A 
ATOM     26  C   UNL     1     -15.613 -13.884  17.787  1.00  0.00    +0.030 A 
ATOM     27  C   UNL     1     -14.618 -13.188  18.492  1.00  0.00    +0.037 A 
BRANCH  27  28
ATOM     28  N   UNL     1     -14.895 -12.002  19.158  1.00  0.00    -0.368 N 
ATOM     29  C   UNL     1     -16.275 -11.596  19.466  1.00  0.00    +0.138 C 
ATOM     30  C   UNL     1     -13.809 -11.257  19.826  1.00  0.00    +0.138 C 
ATOM     31  C   UNL     1     -16.371 -10.077  19.706  1.00  0.00    +0.141 C 
ATOM     32  C   UNL     1     -14.313 -10.463  21.046  1.00  0.00    +0.141 C 
ATOM     33  N   UNL     1     -15.441  -9.586  20.727  1.00  0.00    -0.339 N 
ATOM     34  C   UNL     1     -15.563  -8.374  21.381  1.00  0.00    +0.219 C 
ATOM     35  O   UNL     1     -14.788  -8.015  22.267  1.00  0.00    -0.275 OA
ATOM     36  C   UNL     1     -16.712  -7.488  20.969  1.00  0.00    +0.114 C 
ENDBRANCH  27  28
ENDBRANCH  21  22
ENDBRANCH   1  21
TORSDOF 7
ENDMDL
MODEL 5
REMARK VINA RESULT:    -7.642      2.243      3.655
REMARK INTER + INTRA:         -11.415
REMARK INTER:                 -10.652
REMARK INTRA:                  -0.763
REMARK UNBOUND:                -0.646
REMARK SMILES CC(=O)N1CCN(c2ccc(OC[C@H]3CO[C@](Cn4ccnc4)(c4ccc(Cl)cc4Cl)O3)cc2)CC1
REMARK SMILES IDX 13 1 14 2 17 3 32 4 16 5 15 6 24 7 30 8 29 9 25 10 27 11
REMARK SMILES IDX 26 12 31 13 28 14 18 15 19 16 20 17 23 18 21 19 22 20 12 21
REMARK SMILES IDX 11 22 10 23 33 24 9 25 34 26 8 27 7 28 6 29 35 30 5 31 36 32
REMARK SMILES IDX 4 33 2 34 3 35 1 36
REMARK H PARENT
ROOT
ATOM      1  C   UNL     1     -10.784 -16.537  21.919  1.00  0.00    +0.264 C 
ENDROOT
BRANCH   1   2
ATOM      2  C   UNL     1     -10.269 -17.244  20.669  1.00  0.00    +0.185 C 
ATOM      3  C   UNL     1     -10.936 -18.153  18.683  1.00  0.00    +0.215 C 
ATOM      4  O   UNL     1     -11.142 -17.029  19.552  1.00  0.00    -0.335 OA
ATOM      5  O   UNL     1     -10.301 -19.209  19.447  1.00  0.00    -0.342 OA
ATOM      6  C   UNL     1     -10.268 -18.744  20.799  1.00  0.00    +0.200 C 
BRANCH   3   7
ATOM      7  C   UNL     1     -10.008 -17.744  17.528  1.00  0.00    +0.032 A 
ATOM      8  C   UNL     1      -9.423 -18.673  16.640  1.00  0.00    +0.051 A 
ATOM      9  C   UNL     1      -8.583 -18.250  15.601  1.00  0.00    +0.041 A 
ATOM     10  C   UNL     1      -9.694 -16.380  17.335  1.00  0.00    +0.012 A 
ATOM     11  C   UNL     1      -8.306 -16.898  15.435  1.00  0.00    +0.042 A 
ATOM     12  C   UNL     1      -8.855 -15.960  16.299  1.00  0.00    +0.021 A 
ATOM     13 Cl   UNL     1      -9.666 -20.382  16.763  1.00  0.00    -0.084 Cl
ATOM     14 Cl   UNL     1      -7.272 -16.385  14.160  1.00  0.00    -0.084 Cl
ENDBRANCH   3   7
BRANCH   3  15
ATOM     15  C   UNL     1     -12.278 -18.677  18.124  1.00  0.00    +0.194 C 
BRANCH  15  16
ATOM     16  N   UNL     1     -13.354 -17.703  18.199  1.00  0.00    -0.332 N 
ATOM     17  C   UNL     1     -13.610 -16.707  17.298  1.00  0.00    +0.107 A 
ATOM     18  C   UNL     1     -14.306 -17.635  19.175  1.00  0.00    +0.199 A 
ATOM     19  C   UNL     1     -14.716 -16.058  17.794  1.00  0.00    +0.130 A 
ATOM     20  N   UNL     1     -15.135 -16.637  18.965  1.00  0.00    -0.245 NA
ENDBRANCH  15  16
ENDBRANCH   3  15
ENDBRANCH   1   2
BRANCH   1  21
ATOM     21  O   UNL     1     -11.841 -17.326  22.475  1.00  0.00    -0.491 OA
BRANCH  21  22
ATOM     22  C   UNL     1     -12.207 -17.053  23.762  1.00  0.00    +0.119 A 
ATOM     23  C   UNL     1     -11.279 -16.318  24.492  1.00  0.00    +0.048 A 
ATOM     24  C   UNL     1     -13.389 -17.439  24.382  1.00  0.00    +0.048 A 
ATOM     25  C   UNL     1     -11.528 -15.972  25.828  1.00  0.00    +0.030 A 
ATOM     26  C   UNL     1     -13.630 -17.085  25.720  1.00  0.00    +0.030 A 
ATOM     27  C   UNL     1     -12.713 -16.341  26.480  1.00  0.00    +0.037 A 
BRANCH  27  28
ATOM     28  N   UNL     1     -12.968 -16.008  27.803  1.00  0.00    -0.368 N 
ATOM     29  C   UNL     1     -11.932 -16.130  28.840  1.00  0.00    +0.138 C 
ATOM     30  C   UNL     1     -14.190 -15.258  28.157  1.00  0.00    +0.138 C 
ATOM     31  C   UNL     1     -12.555 -16.225  30.246  1.00  0.00    +0.141 C 
ATOM     32  C   UNL     1     -13.991 -14.377  29.405  1.00  0.00    +0.141 C 
ATOM     33  N   UNL     1     -13.476 -15.126  30.553  1.00  0.00    -0.339 N 
ATOM     34  C   UNL     1     -13.879 -14.773  31.828  1.00  0.00    +0.219 C 
ATOM     35  O   UNL     1     -14.618 -13.815  32.050  1.00  0.00    -0.275 OA
ATOM     36  C   UNL     1     -13.362 -15.618  32.965  1.00  0.00    +0.114 C 
ENDBRANCH  27  28
ENDBRANCH  21  22
ENDBRANCH   1  21
TORSDOF 7
ENDMDL
MODEL 6
REMARK VINA RESULT:    -7.614      7.406     10.090
REMARK INTER + INTRA:         -11.376
REMARK INTER:                 -10.548
REMARK INTRA:                  -0.828
REMARK UNBOUND:                -0.646
REMARK SMILES CC(=O)N1CCN(c2ccc(OC[C@H]3CO[C@](Cn4ccnc4)(c4ccc(Cl)cc4Cl)O3)cc2)CC1
REMARK SMILES IDX 13 1 14 2 17 3 32 4 16 5 15 6 24 7 30 8 29 9 25 10 27 11
REMARK SMILES IDX 26 12 31 13 28 14 18 15 19 16 20 17 23 18 21 19 22 20 12 21
REMARK SMILES IDX 11 22 10 23 33 24 9 25 34 26 8 27 7 28 6 29 35 30 5 31 36 32
REMARK SMILES IDX 4 33 2 34 3 35 1 36
REMARK H PARENT
ROOT
ATOM      1  C   UNL     1     -15.085 -14.665  17.806  1.00  0.00    +0.264 C 
ENDROOT
BRANCH   1   2
ATOM      2  C   UNL     1     -14.330 -15.582  18.763  1.00  0.00    +0.185 C 
ATOM      3  C   UNL     1     -12.305 -16.578  19.117  1.00  0.00    +0.215 C 
ATOM      4  O   UNL     1     -12.917 -15.346  18.703  1.00  0.00    -0.335 OA
ATOM      5  O   UNL     1     -13.290 -17.635  19.005  1.00  0.00    -0.342 OA
ATOM      6  C   UNL     1     -14.434 -17.036  18.389  1.00  0.00    +0.200 C 
BRANCH   3   7
ATOM      7  C   UNL     1     -11.861 -16.462  20.584  1.00  0.00    +0.032 A 
ATOM      8  C   UNL     1     -10.980 -15.462  21.049  1.00  0.00    +0.051 A 
ATOM      9  C   UNL     1     -10.604 -15.399  22.397  1.00  0.00    +0.041 A 
ATOM     10  C   UNL     1     -12.329 -17.400  21.531  1.00  0.00    +0.012 A 
ATOM     11  C   UNL     1     -11.093 -16.334  23.302  1.00  0.00    +0.042 A 
ATOM     12  C   UNL     1     -11.952 -17.337  22.875  1.00  0.00    +0.021 A 
ATOM     13 Cl   UNL     1     -10.279 -14.264  20.015  1.00  0.00    -0.084 Cl
ATOM     14 Cl   UNL     1     -10.627 -16.252  24.956  1.00  0.00    -0.084 Cl
ENDBRANCH   3   7
BRANCH   3  15
ATOM     15  C   UNL     1     -11.093 -16.925  18.223  1.00  0.00    +0.194 C 
BRANCH  15  16
ATOM     16  N   UNL     1     -10.816 -18.350  18.156  1.00  0.00    -0.332 N 
ATOM     17  C   UNL     1     -11.208 -19.206  17.166  1.00  0.00    +0.107 A 
ATOM     18  C   UNL     1     -10.093 -19.068  19.065  1.00  0.00    +0.199 A 
ATOM     19  C   UNL     1     -10.711 -20.432  17.542  1.00  0.00    +0.130 A 
ATOM     20  N   UNL     1     -10.028 -20.336  18.727  1.00  0.00    -0.245 NA
ENDBRANCH  15  16
ENDBRANCH   3  15
ENDBRANCH   1   2
BRANCH   1  21
ATOM     21  O   UNL     1     -16.000 -13.876  18.572  1.00  0.00    -0.491 OA
BRANCH  21  22
ATOM     22  C   UNL     1     -15.954 -12.522  18.392  1.00  0.00    +0.119 A 
ATOM     23  C   UNL     1     -15.577 -12.113  17.117  1.00  0.00    +0.048 A 
ATOM     24  C   UNL     1     -16.241 -11.553  19.345  1.00  0.00    +0.048 A 
ATOM     25  C   UNL     1     -15.487 -10.751  16.797  1.00  0.00    +0.030 A 
ATOM     26  C   UNL     1     -16.150 -10.191  19.015  1.00  0.00    +0.030 A 
ATOM     27  C   UNL     1     -15.776  -9.750  17.736  1.00  0.00    +0.037 A 
BRANCH  27  28
ATOM     28  N   UNL     1     -15.684  -8.399  17.432  1.00  0.00    -0.368 N 
ATOM     29  C   UNL     1     -14.667  -7.537  18.054  1.00  0.00    +0.138 C 
ATOM     30  C   UNL     1     -16.414  -7.849  16.271  1.00  0.00    +0.138 C 
ATOM     31  C   UNL     1     -15.075  -6.053  17.990  1.00  0.00    +0.141 C 
ATOM     32  C   UNL     1     -15.695  -6.636  15.653  1.00  0.00    +0.141 C 
ATOM     33  N   UNL     1     -15.395  -5.592  16.635  1.00  0.00    -0.339 N 
ATOM     34  C   UNL     1     -15.434  -4.265  16.247  1.00  0.00    +0.219 C 
ATOM     35  O   UNL     1     -15.661  -3.918  15.088  1.00  0.00    -0.275 OA
ATOM     36  C   UNL     1     -15.175  -3.233  17.315  1.00  0.00    +0.114 C 
ENDBRANCH  27  28
ENDBRANCH  21  22
ENDBRANCH   1  21
TORSDOF 7
ENDMDL
MODEL 7
REMARK VINA RESULT:    -7.587      9.234     13.556
REMARK INTER + INTRA:         -11.337
REMARK INTER:                 -10.712
REMARK INTRA:                  -0.625
REMARK UNBOUND:                -0.646
REMARK SMILES CC(=O)N1CCN(c2ccc(OC[C@H]3CO[C@](Cn4ccnc4)(c4ccc(Cl)cc4Cl)O3)cc2)CC1
REMARK SMILES IDX 13 1 14 2 17 3 32 4 16 5 15 6 24 7 30 8 29 9 25 10 27 11
REMARK SMILES IDX 26 12 31 13 28 14 18 15 19 16 20 17 23 18 21 19 22 20 12 21
REMARK SMILES IDX 11 22 10 23 33 24 9 25 34 26 8 27 7 28 6 29 35 30 5 31 36 32
REMARK SMILES IDX 4 33 2 34 3 35 1 36
REMARK H PARENT
ROOT
ATOM      1  C   UNL     1     -14.032  -8.606  24.413  1.00  0.00    +0.264 C 
ENDROOT
BRANCH   1   2
ATOM      2  C   UNL     1     -13.750  -9.965  25.045  1.00  0.00    +0.185 C 
ATOM      3  C   UNL     1     -12.723 -10.973  26.818  1.00  0.00    +0.215 C 
ATOM      4  O   UNL     1     -13.538  -9.848  26.458  1.00  0.00    -0.335 OA
ATOM      5  O   UNL     1     -12.108 -11.494  25.614  1.00  0.00    -0.342 OA
ATOM      6  C   UNL     1     -12.460 -10.579  24.572  1.00  0.00    +0.200 C 
BRANCH   3   7
ATOM      7  C   UNL     1     -13.604 -12.066  27.443  1.00  0.00    +0.032 A 
ATOM      8  C   UNL     1     -13.179 -13.401  27.610  1.00  0.00    +0.051 A 
ATOM      9  C   UNL     1     -14.021 -14.362  28.186  1.00  0.00    +0.041 A 
ATOM     10  C   UNL     1     -14.916 -11.749  27.863  1.00  0.00    +0.012 A 
ATOM     11  C   UNL     1     -15.302 -14.011  28.597  1.00  0.00    +0.042 A 
ATOM     12  C   UNL     1     -15.755 -12.709  28.435  1.00  0.00    +0.021 A 
ATOM     13 Cl   UNL     1     -11.622 -13.968  27.110  1.00  0.00    -0.084 Cl
ATOM     14 Cl   UNL     1     -16.331 -15.195  29.300  1.00  0.00    -0.084 Cl
ENDBRANCH   3   7
BRANCH   3  15
ATOM     15  C   UNL     1     -11.610 -10.560  27.809  1.00  0.00    +0.194 C 
BRANCH  15  16
ATOM     16  N   UNL     1     -11.818  -9.245  28.392  1.00  0.00    -0.332 N 
ATOM     17  C   UNL     1     -11.299  -8.065  27.938  1.00  0.00    +0.107 A 
ATOM     18  C   UNL     1     -12.590  -8.966  29.483  1.00  0.00    +0.199 A 
ATOM     19  C   UNL     1     -11.775  -7.111  28.806  1.00  0.00    +0.130 A 
ATOM     20  N   UNL     1     -12.568  -7.683  29.768  1.00  0.00    -0.245 NA
ENDBRANCH  15  16
ENDBRANCH   3  15
ENDBRANCH   1   2
BRANCH   1  21
ATOM     21  O   UNL     1     -15.204  -8.725  23.601  1.00  0.00    -0.491 OA
BRANCH  21  22
ATOM     22  C   UNL     1     -15.153  -8.173  22.353  1.00  0.00    +0.119 A 
ATOM     23  C   UNL     1     -16.378  -7.746  21.850  1.00  0.00    +0.048 A 
ATOM     24  C   UNL     1     -14.018  -8.012  21.568  1.00  0.00    +0.048 A 
ATOM     25  C   UNL     1     -16.468  -7.163  20.578  1.00  0.00    +0.030 A 
ATOM     26  C   UNL     1     -14.118  -7.426  20.296  1.00  0.00    +0.030 A 
ATOM     27  C   UNL     1     -15.340  -6.982  19.765  1.00  0.00    +0.037 A 
BRANCH  27  28
ATOM     28  N   UNL     1     -15.419  -6.412  18.502  1.00  0.00    -0.368 N 
ATOM     29  C   UNL     1     -14.661  -5.200  18.155  1.00  0.00    +0.138 C 
ATOM     30  C   UNL     1     -16.039  -7.160  17.390  1.00  0.00    +0.138 C 
ATOM     31  C   UNL     1     -15.285  -4.475  16.948  1.00  0.00    +0.141 C 
ATOM     32  C   UNL     1     -15.436  -6.779  16.025  1.00  0.00    +0.141 C 
ATOM     33  N   UNL     1     -15.461  -5.336  15.775  1.00  0.00    -0.339 N 
ATOM     34  C   UNL     1     -15.651  -4.875  14.485  1.00  0.00    +0.219 C 
ATOM     35  O   UNL     1     -15.749  -5.629  13.517  1.00  0.00    -0.275 OA
ATOM     36  C   UNL     1     -15.727  -3.381  14.298  1.00  0.00    +0.114 C 
ENDBRANCH  27  28
ENDBRANCH  21  22
ENDBRANCH   1  21
TORSDOF 7
ENDMDL
MODEL 8
REMARK VINA RESULT:    -7.556      5.865     10.153
REMARK INTER + INTRA:         -11.294
REMARK INTER:                 -10.866
REMARK INTRA:                  -0.429
REMARK UNBOUND:                -0.646
REMARK SMILES CC(=O)N1CCN(c2ccc(OC[C@H]3CO[C@](Cn4ccnc4)(c4ccc(Cl)cc4Cl)O3)cc2)CC1
REMARK SMILES IDX 13 1 14 2 17 3 32 4 16 5 15 6 24 7 30 8 29 9 25 10 27 11
REMARK SMILES IDX 26 12 31 13 28 14 18 15 19 16 20 17 23 18 21 19 22 20 12 21
REMARK SMILES IDX 11 22 10 23 33 24 9 25 34 26 8 27 7 28 6 29 35 30 5 31 36 32
REMARK SMILES IDX 4 33 2 34 3 35 1 36
REMARK H PARENT
ROOT
ATOM      1  C   UNL     1     -11.996 -11.929  28.614  1.00  0.00    +0.264 C 
ENDROOT
BRANCH   1   2
ATOM      2  C   UNL     1     -11.671 -13.313  28.059  1.00  0.00    +0.185 C 
ATOM      3  C   UNL     1     -12.419 -15.469  27.985  1.00  0.00    +0.215 C 
ATOM      4  O   UNL     1     -12.857 -14.104  27.907  1.00  0.00    -0.335 OA
ATOM      5  O   UNL     1     -11.104 -15.492  28.595  1.00  0.00    -0.342 OA
ATOM      6  C   UNL     1     -10.842 -14.145  28.999  1.00  0.00    +0.200 C 
BRANCH   3   7
ATOM      7  C   UNL     1     -12.323 -16.059  26.569  1.00  0.00    +0.032 A 
ATOM      8  C   UNL     1     -11.154 -15.995  25.782  1.00  0.00    +0.051 A 
ATOM      9  C   UNL     1     -11.116 -16.548  24.495  1.00  0.00    +0.041 A 
ATOM     10  C   UNL     1     -13.453 -16.684  25.996  1.00  0.00    +0.012 A 
ATOM     11  C   UNL     1     -12.245 -17.165  23.968  1.00  0.00    +0.042 A 
ATOM     12  C   UNL     1     -13.415 -17.234  24.712  1.00  0.00    +0.021 A 
ATOM     13 Cl   UNL     1      -9.697 -15.225  26.313  1.00  0.00    -0.084 Cl
ATOM     14 Cl   UNL     1     -12.194 -17.840  22.387  1.00  0.00    -0.084 Cl
ENDBRANCH   3   7
BRANCH   3  15
ATOM     15  C   UNL     1     -13.385 -16.315  28.846  1.00  0.00    +0.194 C 
BRANCH  15  16
ATOM     16  N   UNL     1     -14.278 -15.513  29.666  1.00  0.00    -0.332 N 
ATOM     17  C   UNL     1     -15.572 -15.186  29.373  1.00  0.00    +0.107 A 
ATOM     18  C   UNL     1     -13.978 -14.972  30.882  1.00  0.00    +0.199 A 
ATOM     19  C   UNL     1     -15.995 -14.428  30.439  1.00  0.00    +0.130 A 
ATOM     20  N   UNL     1     -14.994 -14.293  31.367  1.00  0.00    -0.245 NA
ENDBRANCH  15  16
ENDBRANCH   3  15
ENDBRANCH   1   2
BRANCH   1  21
ATOM     21  O   UNL     1     -11.308 -10.957  27.821  1.00  0.00    -0.491 OA
BRANCH  21  22
ATOM     22  C   UNL     1     -11.877 -10.614  26.627  1.00  0.00    +0.119 A 
ATOM     23  C   UNL     1     -13.105  -9.969  26.727  1.00  0.00    +0.048 A 
ATOM     24  C   UNL     1     -11.350 -10.852  25.364  1.00  0.00    +0.048 A 
ATOM     25  C   UNL     1     -13.800  -9.564  25.578  1.00  0.00    +0.030 A 
ATOM     26  C   UNL     1     -12.052 -10.441  24.219  1.00  0.00    +0.030 A 
ATOM     27  C   UNL     1     -13.291  -9.784  24.290  1.00  0.00    +0.037 A 
BRANCH  27  28
ATOM     28  N   UNL     1     -13.973  -9.394  23.146  1.00  0.00    -0.368 N 
ATOM     29  C   UNL     1     -14.458 -10.377  22.166  1.00  0.00    +0.138 C 
ATOM     30  C   UNL     1     -14.478  -8.012  23.021  1.00  0.00    +0.138 C 
ATOM     31  C   UNL     1     -14.689  -9.727  20.788  1.00  0.00    +0.141 C 
ATOM     32  C   UNL     1     -15.744  -7.932  22.147  1.00  0.00    +0.141 C 
ATOM     33  N   UNL     1     -15.569  -8.555  20.834  1.00  0.00    -0.339 N 
ATOM     34  C   UNL     1     -16.217  -8.018  19.737  1.00  0.00    +0.219 C 
ATOM     35  O   UNL     1     -16.985  -7.060  19.822  1.00  0.00    -0.275 OA
ATOM     36  C   UNL     1     -15.951  -8.666  18.402  1.00  0.00    +0.114 C 
ENDBRANCH  27  28
ENDBRANCH  21  22
ENDBRANCH   1  21
TORSDOF 7
ENDMDL
MODEL 9
REMARK VINA RESULT:    -7.482      7.849     11.627
REMARK INTER + INTRA:         -11.189
REMARK INTER:                 -10.302
REMARK INTRA:                  -0.887
REMARK UNBOUND:                -0.646
REMARK SMILES CC(=O)N1CCN(c2ccc(OC[C@H]3CO[C@](Cn4ccnc4)(c4ccc(Cl)cc4Cl)O3)cc2)CC1
REMARK SMILES IDX 13 1 14 2 17 3 32 4 16 5 15 6 24 7 30 8 29 9 25 10 27 11
REMARK SMILES IDX 26 12 31 13 28 14 18 15 19 16 20 17 23 18 21 19 22 20 12 21
REMARK SMILES IDX 11 22 10 23 33 24 9 25 34 26 8 27 7 28 6 29 35 30 5 31 36 32
REMARK SMILES IDX 4 33 2 34 3 35 1 36
REMARK H PARENT
ROOT
ATOM      1  C   UNL     1     -16.397 -10.925  19.651  1.00  0.00    +0.264 C 
ENDROOT
BRANCH   1   2
ATOM      2  C   UNL     1     -16.176  -9.419  19.543  1.00  0.00    +0.185 C 
ATOM      3  C   UNL     1     -14.787  -7.729  20.200  1.00  0.00    +0.215 C 
ATOM      4  O   UNL     1     -14.793  -9.082  19.720  1.00  0.00    -0.335 OA
ATOM      5  O   UNL     1     -16.109  -7.419  20.707  1.00  0.00    -0.342 OA
ATOM      6  C   UNL     1     -16.844  -8.645  20.648  1.00  0.00    +0.200 C 
BRANCH   3   7
ATOM      7  C   UNL     1     -14.460  -6.775  19.039  1.00  0.00    +0.032 A 
ATOM      8  C   UNL     1     -13.313  -6.909  18.228  1.00  0.00    +0.051 A 
ATOM      9  C   UNL     1     -13.059  -6.013  17.181  1.00  0.00    +0.041 A 
ATOM     10  C   UNL     1     -15.325  -5.693  18.762  1.00  0.00    +0.012 A 
ATOM     11  C   UNL     1     -13.938  -4.965  16.931  1.00  0.00    +0.042 A 
ATOM     12  C   UNL     1     -15.069  -4.798  17.719  1.00  0.00    +0.021 A 
ATOM     13 Cl   UNL     1     -12.130  -8.151  18.460  1.00  0.00    -0.084 Cl
ATOM     14 Cl   UNL     1     -13.620  -3.867  15.647  1.00  0.00    -0.084 Cl
ENDBRANCH   3   7
BRANCH   3  15
ATOM     15  C   UNL     1     -13.759  -7.547  21.340  1.00  0.00    +0.194 C 
BRANCH  15  16
ATOM     16  N   UNL     1     -13.910  -8.517  22.411  1.00  0.00    -0.332 N 
ATOM     17  C   UNL     1     -13.354  -9.765  22.460  1.00  0.00    +0.107 A 
ATOM     18  C   UNL     1     -14.616  -8.331  23.565  1.00  0.00    +0.199 A 
ATOM     19  C   UNL     1     -13.777 -10.294  23.657  1.00  0.00    +0.130 A 
ATOM     20  N   UNL     1     -14.568  -9.398  24.331  1.00  0.00    -0.245 NA
ENDBRANCH  15  16
ENDBRANCH   3  15
ENDBRANCH   1   2
BRANCH   1  21
ATOM     21  O   UNL     1     -16.212 -11.497  18.353  1.00  0.00    -0.491 OA
BRANCH  21  22
ATOM     22  C   UNL     1     -15.529 -12.679  18.288  1.00  0.00    +0.119 A 
ATOM     23  C   UNL     1     -14.216 -12.623  18.744  1.00  0.00    +0.048 A 
ATOM     24  C   UNL     1     -16.020 -13.890  17.817  1.00  0.00    +0.048 A 
ATOM     25  C   UNL     1     -13.402 -13.765  18.730  1.00  0.00    +0.030 A 
ATOM     26  C   UNL     1     -15.198 -15.028  17.809  1.00  0.00    +0.030 A 
ATOM     27  C   UNL     1     -13.870 -15.002  18.267  1.00  0.00    +0.037 A 
BRANCH  27  28
ATOM     28  N   UNL     1     -13.071 -16.137  18.243  1.00  0.00    -0.368 N 
ATOM     29  C   UNL     1     -12.231 -16.462  17.080  1.00  0.00    +0.138 C 
ATOM     30  C   UNL     1     -12.824 -16.895  19.486  1.00  0.00    +0.138 C 
ATOM     31  C   UNL     1     -11.872 -17.960  17.051  1.00  0.00    +0.141 C 
ATOM     32  C   UNL     1     -11.454 -17.599  19.475  1.00  0.00    +0.141 C 
ATOM     33  N   UNL     1     -11.256 -18.439  18.292  1.00  0.00    -0.339 N 
ATOM     34  C   UNL     1     -10.526 -19.608  18.406  1.00  0.00    +0.219 C 
ATOM     35  O   UNL     1      -9.984 -19.953  19.455  1.00  0.00    -0.275 OA
ATOM     36  C   UNL     1     -10.406 -20.461  17.168  1.00  0.00    +0.114 C 
ENDBRANCH  27  28
ENDBRANCH  21  22
ENDBRANCH   1  21
TORSDOF 7
ENDMDL
