MODEL 1
REMARK VINA RESULT:    -8.787      0.000      0.000
REMARK INTER + INTRA:         -13.061
REMARK INTER:                 -12.383
REMARK INTRA:                  -0.678
REMARK UNBOUND:                -0.678
REMARK SMILES CC(=O)N1CCN(c2ccc(OC[C@H]3CO[C@](Cn4ccnc4)(c4ccc(Cl)cc4Cl)O3)cc2)CC1
REMARK SMILES IDX 13 1 14 2 17 3 32 4 16 5 15 6 24 7 30 8 29 9 25 10 27 11
REMARK SMILES IDX 26 12 31 13 28 14 18 15 19 16 20 17 23 18 21 19 22 20 12 21
REMARK SMILES IDX 11 22 10 23 33 24 9 25 34 26 8 27 7 28 6 29 35 30 5 31 36 32
REMARK SMILES IDX 4 33 2 34 3 35 1 36
REMARK H PARENT
ROOT
ATOM      1  C   UNL     1      16.689  72.048  20.250  1.00  0.00    +0.264 C 
ENDROOT
BRANCH   1   2
ATOM      2  C   UNL     1      17.174  71.504  18.910  1.00  0.00    +0.185 C 
ATOM      3  C   UNL     1      17.918  69.610  17.873  1.00  0.00    +0.215 C 
ATOM      4  O   UNL     1      16.939  70.093  18.806  1.00  0.00    -0.335 OA
ATOM      5  O   UNL     1      18.970  70.601  17.763  1.00  0.00    -0.342 OA
ATOM      6  C   UNL     1      18.666  71.599  18.741  1.00  0.00    +0.200 C 
BRANCH   3   7
ATOM      7  C   UNL     1      17.264  69.418  16.496  1.00  0.00    +0.032 A 
ATOM      8  C   UNL     1      15.927  69.001  16.326  1.00  0.00    +0.051 A 
ATOM      9  C   UNL     1      15.375  68.840  15.048  1.00  0.00    +0.041 A 
ATOM     10  C   UNL     1      18.022  69.647  15.326  1.00  0.00    +0.012 A 
ATOM     11  C   UNL     1      16.149  69.085  13.919  1.00  0.00    +0.042 A 
ATOM     12  C   UNL     1      17.472  69.484  14.052  1.00  0.00    +0.021 A 
ATOM     13 Cl   UNL     1      14.874  68.635  17.651  1.00  0.00    -0.084 Cl
ATOM     14 Cl   UNL     1      15.468  68.884  12.353  1.00  0.00    -0.084 Cl
ENDBRANCH   3   7
BRANCH   3  15
ATOM     15  C   UNL     1      18.536  68.277  18.356  1.00  0.00    +0.194 C 
BRANCH  15  16
ATOM     16  N   UNL     1      19.974  68.205  18.162  1.00  0.00    -0.332 N 
ATOM     17  C   UNL     1      20.933  68.459  19.103  1.00  0.00    +0.107 A 
ATOM     18  C   UNL     1      20.610  67.847  17.008  1.00  0.00    +0.199 A 
ATOM     19  C   UNL     1      22.128  68.258  18.453  1.00  0.00    +0.130 A 
ATOM     20  N   UNL     1      21.915  67.887  17.150  1.00  0.00    -0.245 NA
ENDBRANCH  15  16
ENDBRANCH   3  15
ENDBRANCH   1   2
BRANCH   1  21
ATOM     21  O   UNL     1      15.910  73.222  20.000  1.00  0.00    -0.491 OA
BRANCH  21  22
ATOM     22  C   UNL     1      14.558  73.058  19.891  1.00  0.00    +0.119 A 
ATOM     23  C   UNL     1      13.828  73.448  21.009  1.00  0.00    +0.048 A 
ATOM     24  C   UNL     1      13.875  72.548  18.794  1.00  0.00    +0.048 A 
ATOM     25  C   UNL     1      12.431  73.331  21.031  1.00  0.00    +0.030 A 
ATOM     26  C   UNL     1      12.475  72.437  18.825  1.00  0.00    +0.030 A 
ATOM     27  C   UNL     1      11.713  72.827  19.938  1.00  0.00    +0.037 A 
BRANCH  27  28
ATOM     28  N   UNL     1      10.331  72.701  19.951  1.00  0.00    -0.368 N 
ATOM     29  C   UNL     1       9.450  73.879  19.943  1.00  0.00    +0.138 C 
ATOM     30  C   UNL     1       9.704  71.389  19.689  1.00  0.00    +0.138 C 
ATOM     31  C   UNL     1       8.049  73.534  20.484  1.00  0.00    +0.141 C 
ATOM     32  C   UNL     1       8.315  71.528  19.038  1.00  0.00    +0.141 C 
ATOM     33  N   UNL     1       7.418  72.404  19.795  1.00  0.00    -0.339 N 
ATOM     34  C   UNL     1       6.064  72.124  19.826  1.00  0.00    +0.219 C 
ATOM     35  O   UNL     1       5.564  71.192  19.197  1.00  0.00    -0.275 OA
ATOM     36  C   UNL     1       5.199  73.026  20.670  1.00  0.00    +0.114 C 
ENDBRANCH  27  28
ENDBRANCH  21  22
ENDBRANCH   1  21
TORSDOF 7
ENDMDL
MODEL 2
REMARK VINA RESULT:    -8.548      1.487      1.917
REMARK INTER + INTRA:         -12.723
REMARK INTER:                 -11.789
REMARK INTRA:                  -0.934
REMARK UNBOUND:                -0.678
REMARK SMILES CC(=O)N1CCN(c2ccc(OC[C@H]3CO[C@](Cn4ccnc4)(c4ccc(Cl)cc4Cl)O3)cc2)CC1
REMARK SMILES IDX 13 1 14 2 17 3 32 4 16 5 15 6 24 7 30 8 29 9 25 10 27 11
REMARK SMILES IDX 26 12 31 13 28 14 18 15 19 16 20 17 23 18 21 19 22 20 12 21
REMARK SMILES IDX 11 22 10 23 33 24 9 25 34 26 8 27 7 28 6 29 35 30 5 31 36 32
REMARK SMILES IDX 4 33 2 34 3 35 1 36
REMARK H PARENT
ROOT
ATOM      1  C   UNL     1      17.216  71.573  20.356  1.00  0.00    +0.264 C 
ENDROOT
BRANCH   1   2
ATOM      2  C   UNL     1      17.072  71.197  18.884  1.00  0.00    +0.185 C 
ATOM      3  C   UNL     1      17.441  69.510  17.390  1.00  0.00    +0.215 C 
ATOM      4  O   UNL     1      16.967  69.777  18.719  1.00  0.00    -0.335 OA
ATOM      5  O   UNL     1      18.206  70.656  16.941  1.00  0.00    -0.342 OA
ATOM      6  C   UNL     1      18.292  71.531  18.069  1.00  0.00    +0.200 C 
BRANCH   3   7
ATOM      7  C   UNL     1      16.242  69.309  16.449  1.00  0.00    +0.032 A 
ATOM      8  C   UNL     1      16.367  69.220  15.046  1.00  0.00    +0.051 A 
ATOM      9  C   UNL     1      15.243  69.036  14.230  1.00  0.00    +0.041 A 
ATOM     10  C   UNL     1      14.939  69.224  16.988  1.00  0.00    +0.012 A 
ATOM     11  C   UNL     1      13.977  68.946  14.797  1.00  0.00    +0.042 A 
ATOM     12  C   UNL     1      13.819  69.042  16.173  1.00  0.00    +0.021 A 
ATOM     13 Cl   UNL     1      17.883  69.349  14.221  1.00  0.00    -0.084 Cl
ATOM     14 Cl   UNL     1      12.600  68.723  13.790  1.00  0.00    -0.084 Cl
ENDBRANCH   3   7
BRANCH   3  15
ATOM     15  C   UNL     1      18.350  68.260  17.364  1.00  0.00    +0.194 C 
BRANCH  15  16
ATOM     16  N   UNL     1      19.758  68.568  17.550  1.00  0.00    -0.332 N 
ATOM     17  C   UNL     1      20.390  68.786  18.742  1.00  0.00    +0.107 A 
ATOM     18  C   UNL     1      20.693  68.667  16.561  1.00  0.00    +0.199 A 
ATOM     19  C   UNL     1      21.700  69.033  18.408  1.00  0.00    +0.130 A 
ATOM     20  N   UNL     1      21.876  68.966  17.050  1.00  0.00    -0.245 NA
ENDBRANCH  15  16
ENDBRANCH   3  15
ENDBRANCH   1   2
BRANCH   1  21
ATOM     21  O   UNL     1      16.257  70.821  21.106  1.00  0.00    -0.491 OA
BRANCH  21  22
ATOM     22  C   UNL     1      14.939  71.115  20.900  1.00  0.00    +0.119 A 
ATOM     23  C   UNL     1      14.106  70.010  20.764  1.00  0.00    +0.048 A 
ATOM     24  C   UNL     1      14.381  72.385  20.817  1.00  0.00    +0.048 A 
ATOM     25  C   UNL     1      12.730  70.171  20.546  1.00  0.00    +0.030 A 
ATOM     26  C   UNL     1      13.002  72.536  20.601  1.00  0.00    +0.030 A 
ATOM     27  C   UNL     1      12.137  71.438  20.463  1.00  0.00    +0.037 A 
BRANCH  27  28
ATOM     28  N   UNL     1      10.777  71.609  20.242  1.00  0.00    -0.368 N 
ATOM     29  C   UNL     1      10.084  72.848  20.627  1.00  0.00    +0.138 C 
ATOM     30  C   UNL     1      10.047  70.673  19.363  1.00  0.00    +0.138 C 
ATOM     31  C   UNL     1       8.568  72.617  20.780  1.00  0.00    +0.141 C 
ATOM     32  C   UNL     1       8.852  71.347  18.661  1.00  0.00    +0.141 C 
ATOM     33  N   UNL     1       7.946  72.014  19.597  1.00  0.00    -0.339 N 
ATOM     34  C   UNL     1       6.589  72.034  19.329  1.00  0.00    +0.219 C 
ATOM     35  O   UNL     1       6.108  71.557  18.301  1.00  0.00    -0.275 OA
ATOM     36  C   UNL     1       5.699  72.683  20.358  1.00  0.00    +0.114 C 
ENDBRANCH  27  28
ENDBRANCH  21  22
ENDBRANCH   1  21
TORSDOF 7
ENDMDL
MODEL 3
REMARK VINA RESULT:    -8.522      2.208      2.816
REMARK INTER + INTRA:         -12.687
REMARK INTER:                 -11.659
REMARK INTRA:                  -1.028
REMARK UNBOUND:                -0.678
REMARK SMILES CC(=O)N1CCN(c2ccc(OC[C@H]3CO[C@](Cn4ccnc4)(c4ccc(Cl)cc4Cl)O3)cc2)CC1
REMARK SMILES IDX 13 1 14 2 17 3 32 4 16 5 15 6 24 7 30 8 29 9 25 10 27 11
REMARK SMILES IDX 26 12 31 13 28 14 18 15 19 16 20 17 23 18 21 19 22 20 12 21
REMARK SMILES IDX 11 22 10 23 33 24 9 25 34 26 8 27 7 28 6 29 35 30 5 31 36 32
REMARK SMILES IDX 4 33 2 34 3 35 1 36
REMARK H PARENT
ROOT
ATOM      1  C   UNL     1      18.028  72.088  20.954  1.00  0.00    +0.264 C 
ENDROOT
BRANCH   1   2
ATOM      2  C   UNL     1      18.301  71.396  19.622  1.00  0.00    +0.185 C 
ATOM      3  C   UNL     1      18.538  69.345  18.647  1.00  0.00    +0.215 C 
ATOM      4  O   UNL     1      17.748  70.074  19.598  1.00  0.00    -0.335 OA
ATOM      5  O   UNL     1      19.779  70.065  18.439  1.00  0.00    -0.342 OA
ATOM      6  C   UNL     1      19.765  71.142  19.380  1.00  0.00    +0.200 C 
BRANCH   3   7
ATOM      7  C   UNL     1      17.781  69.256  17.312  1.00  0.00    +0.032 A 
ATOM      8  C   UNL     1      16.378  69.132  17.226  1.00  0.00    +0.051 A 
ATOM      9  C   UNL     1      15.733  69.054  15.984  1.00  0.00    +0.041 A 
ATOM     10  C   UNL     1      18.503  69.278  16.098  1.00  0.00    +0.012 A 
ATOM     11  C   UNL     1      16.476  69.090  14.810  1.00  0.00    +0.042 A 
ATOM     12  C   UNL     1      17.859  69.198  14.861  1.00  0.00    +0.021 A 
ATOM     13 Cl   UNL     1      15.348  69.045  18.615  1.00  0.00    -0.084 Cl
ATOM     14 Cl   UNL     1      15.680  68.992  13.288  1.00  0.00    -0.084 Cl
ENDBRANCH   3   7
BRANCH   3  15
ATOM     15  C   UNL     1      18.864  67.926  19.166  1.00  0.00    +0.194 C 
BRANCH  15  16
ATOM     16  N   UNL     1      20.215  67.493  18.850  1.00  0.00    -0.332 N 
ATOM     17  C   UNL     1      21.316  67.625  19.648  1.00  0.00    +0.107 A 
ATOM     18  C   UNL     1      20.604  66.857  17.707  1.00  0.00    +0.199 A 
ATOM     19  C   UNL     1      22.346  67.070  18.925  1.00  0.00    +0.130 A 
ATOM     20  N   UNL     1      21.894  66.604  17.717  1.00  0.00    -0.245 NA
ENDBRANCH  15  16
ENDBRANCH   3  15
ENDBRANCH   1   2
BRANCH   1  21
ATOM     21  O   UNL     1      17.079  73.134  20.729  1.00  0.00    -0.491 OA
BRANCH  21  22
ATOM     22  C   UNL     1      15.920  72.794  20.089  1.00  0.00    +0.119 A 
ATOM     23  C   UNL     1      15.948  72.943  18.707  1.00  0.00    +0.048 A 
ATOM     24  C   UNL     1      14.755  72.329  20.686  1.00  0.00    +0.048 A 
ATOM     25  C   UNL     1      14.824  72.632  17.928  1.00  0.00    +0.030 A 
ATOM     26  C   UNL     1      13.635  72.018  19.898  1.00  0.00    +0.030 A 
ATOM     27  C   UNL     1      13.636  72.155  18.500  1.00  0.00    +0.037 A 
BRANCH  27  28
ATOM     28  N   UNL     1      12.516  71.850  17.740  1.00  0.00    -0.368 N 
ATOM     29  C   UNL     1      12.599  70.966  16.567  1.00  0.00    +0.138 C 
ATOM     30  C   UNL     1      11.167  72.172  18.246  1.00  0.00    +0.138 C 
ATOM     31  C   UNL     1      11.414  71.192  15.610  1.00  0.00    +0.141 C 
ATOM     32  C   UNL     1      10.100  71.193  17.721  1.00  0.00    +0.141 C 
ATOM     33  N   UNL     1      10.106  71.076  16.261  1.00  0.00    -0.339 N 
ATOM     34  C   UNL     1       8.911  70.875  15.593  1.00  0.00    +0.219 C 
ATOM     35  O   UNL     1       7.838  70.736  16.178  1.00  0.00    -0.275 OA
ATOM     36  C   UNL     1       8.972  70.822  14.087  1.00  0.00    +0.114 C 
ENDBRANCH  27  28
ENDBRANCH  21  22
ENDBRANCH   1  21
TORSDOF 7
ENDMDL
MODEL 4
REMARK VINA RESULT:    -8.453      4.576      7.278
REMARK INTER + INTRA:         -12.590
REMARK INTER:                 -11.476
REMARK INTRA:                  -1.114
REMARK UNBOUND:                -0.678
REMARK SMILES CC(=O)N1CCN(c2ccc(OC[C@H]3CO[C@](Cn4ccnc4)(c4ccc(Cl)cc4Cl)O3)cc2)CC1
REMARK SMILES IDX 13 1 14 2 17 3 32 4 16 5 15 6 24 7 30 8 29 9 25 10 27 11
REMARK SMILES IDX 26 12 31 13 28 14 18 15 19 16 20 17 23 18 21 19 22 20 12 21
REMARK SMILES IDX 11 22 10 23 33 24 9 25 34 26 8 27 7 28 6 29 35 30 5 31 36 32
REMARK SMILES IDX 4 33 2 34 3 35 1 36
REMARK H PARENT
ROOT
ATOM      1  C   UNL     1      19.804  67.359  17.298  1.00  0.00    +0.264 C 
ENDROOT
BRANCH   1   2
ATOM      2  C   UNL     1      21.059  67.692  18.099  1.00  0.00    +0.185 C 
ATOM      3  C   UNL     1      21.817  68.898  19.884  1.00  0.00    +0.215 C 
ATOM      4  O   UNL     1      20.735  68.063  19.445  1.00  0.00    -0.335 OA
ATOM      5  O   UNL     1      22.533  69.366  18.714  1.00  0.00    -0.342 OA
ATOM      6  C   UNL     1      21.777  68.912  17.588  1.00  0.00    +0.200 C 
BRANCH   3   7
ATOM      7  C   UNL     1      22.774  68.078  20.762  1.00  0.00    +0.032 A 
ATOM      8  C   UNL     1      22.345  67.312  21.867  1.00  0.00    +0.051 A 
ATOM      9  C   UNL     1      23.259  66.580  22.638  1.00  0.00    +0.041 A 
ATOM     10  C   UNL     1      24.159  68.090  20.483  1.00  0.00    +0.012 A 
ATOM     11  C   UNL     1      24.613  66.607  22.327  1.00  0.00    +0.042 A 
ATOM     12  C   UNL     1      25.069  67.362  21.255  1.00  0.00    +0.021 A 
ATOM     13 Cl   UNL     1      20.693  67.224  22.373  1.00  0.00    -0.084 Cl
ATOM     14 Cl   UNL     1      25.730  65.710  23.279  1.00  0.00    -0.084 Cl
ENDBRANCH   3   7
BRANCH   3  15
ATOM     15  C   UNL     1      21.292  70.121  20.671  1.00  0.00    +0.194 C 
BRANCH  15  16
ATOM     16  N   UNL     1      19.910  70.452  20.367  1.00  0.00    -0.332 N 
ATOM     17  C   UNL     1      18.810  70.088  21.092  1.00  0.00    +0.107 A 
ATOM     18  C   UNL     1      19.481  71.207  19.313  1.00  0.00    +0.199 A 
ATOM     19  C   UNL     1      17.744  70.633  20.416  1.00  0.00    +0.130 A 
ATOM     20  N   UNL     1      18.172  71.319  19.307  1.00  0.00    -0.245 NA
ENDBRANCH  15  16
ENDBRANCH   3  15
ENDBRANCH   1   2
BRANCH   1  21
ATOM     21  O   UNL     1      19.515  68.466  16.439  1.00  0.00    -0.491 OA
BRANCH  21  22
ATOM     22  C   UNL     1      18.199  68.785  16.260  1.00  0.00    +0.119 A 
ATOM     23  C   UNL     1      17.812  68.953  14.934  1.00  0.00    +0.048 A 
ATOM     24  C   UNL     1      17.247  68.952  17.258  1.00  0.00    +0.048 A 
ATOM     25  C   UNL     1      16.489  69.285  14.608  1.00  0.00    +0.030 A 
ATOM     26  C   UNL     1      15.924  69.282  16.921  1.00  0.00    +0.030 A 
ATOM     27  C   UNL     1      15.505  69.454  15.592  1.00  0.00    +0.037 A 
BRANCH  27  28
ATOM     28  N   UNL     1      14.194  69.788  15.281  1.00  0.00    -0.368 N 
ATOM     29  C   UNL     1      13.424  70.731  16.105  1.00  0.00    +0.138 C 
ATOM     30  C   UNL     1      13.632  69.430  13.963  1.00  0.00    +0.138 C 
ATOM     31  C   UNL     1      11.908  70.544  15.903  1.00  0.00    +0.141 C 
ATOM     32  C   UNL     1      12.549  70.425  13.503  1.00  0.00    +0.141 C 
ATOM     33  N   UNL     1      11.493  70.616  14.498  1.00  0.00    -0.339 N 
ATOM     34  C   UNL     1      10.196  70.841  14.074  1.00  0.00    +0.219 C 
ATOM     35  O   UNL     1       9.893  70.941  12.886  1.00  0.00    -0.275 OA
ATOM     36  C   UNL     1       9.141  70.971  15.144  1.00  0.00    +0.114 C 
ENDBRANCH  27  28
ENDBRANCH  21  22
ENDBRANCH   1  21
TORSDOF 7
ENDMDL
MODEL 5
REMARK VINA RESULT:    -8.235      3.505     10.147
REMARK INTER + INTRA:         -12.283
REMARK INTER:                 -10.759
REMARK INTRA:                  -1.524
REMARK UNBOUND:                -0.678
REMARK SMILES CC(=O)N1CCN(c2ccc(OC[C@H]3CO[C@](Cn4ccnc4)(c4ccc(Cl)cc4Cl)O3)cc2)CC1
REMARK SMILES IDX 13 1 14 2 17 3 32 4 16 5 15 6 24 7 30 8 29 9 25 10 27 11
REMARK SMILES IDX 26 12 31 13 28 14 18 15 19 16 20 17 23 18 21 19 22 20 12 21
REMARK SMILES IDX 11 22 10 23 33 24 9 25 34 26 8 27 7 28 6 29 35 30 5 31 36 32
REMARK SMILES IDX 4 33 2 34 3 35 1 36
REMARK H PARENT
ROOT
ATOM      1  C   UNL     1      11.163  72.360  16.383  1.00  0.00    +0.264 C 
ENDROOT
BRANCH   1   2
ATOM      2  C   UNL     1      10.073  72.338  17.451  1.00  0.00    +0.185 C 
ATOM      3  C   UNL     1       9.729  72.138  19.699  1.00  0.00    +0.215 C 
ATOM      4  O   UNL     1      10.585  72.753  18.724  1.00  0.00    -0.335 OA
ATOM      5  O   UNL     1       9.012  71.054  19.057  1.00  0.00    -0.342 OA
ATOM      6  C   UNL     1       9.561  70.953  17.740  1.00  0.00    +0.200 C 
BRANCH   3   7
ATOM      7  C   UNL     1       8.715  73.171  20.216  1.00  0.00    +0.032 A 
ATOM      8  C   UNL     1       9.082  74.460  20.659  1.00  0.00    +0.051 A 
ATOM      9  C   UNL     1       8.119  75.367  21.122  1.00  0.00    +0.041 A 
ATOM     10  C   UNL     1       7.345  72.833  20.278  1.00  0.00    +0.012 A 
ATOM     11  C   UNL     1       6.778  75.002  21.158  1.00  0.00    +0.042 A 
ATOM     12  C   UNL     1       6.386  73.738  20.741  1.00  0.00    +0.021 A 
ATOM     13 Cl   UNL     1      10.719  75.019  20.692  1.00  0.00    -0.084 Cl
ATOM     14 Cl   UNL     1       5.601  76.119  21.729  1.00  0.00    -0.084 Cl
ENDBRANCH   3   7
BRANCH   3  15
ATOM     15  C   UNL     1      10.549  71.566  20.878  1.00  0.00    +0.194 C 
BRANCH  15  16
ATOM     16  N   UNL     1      11.892  71.159  20.501  1.00  0.00    -0.332 N 
ATOM     17  C   UNL     1      13.034  71.897  20.645  1.00  0.00    +0.107 A 
ATOM     18  C   UNL     1      12.242  69.955  19.961  1.00  0.00    +0.199 A 
ATOM     19  C   UNL     1      14.037  71.095  20.154  1.00  0.00    +0.130 A 
ATOM     20  N   UNL     1      13.533  69.894  19.724  1.00  0.00    -0.245 NA
ENDBRANCH  15  16
ENDBRANCH   3  15
ENDBRANCH   1   2
BRANCH   1  21
ATOM     21  O   UNL     1      11.453  71.009  16.012  1.00  0.00    -0.491 OA
BRANCH  21  22
ATOM     22  C   UNL     1      12.736  70.577  16.197  1.00  0.00    +0.119 A 
ATOM     23  C   UNL     1      13.662  71.583  16.455  1.00  0.00    +0.048 A 
ATOM     24  C   UNL     1      13.178  69.261  16.147  1.00  0.00    +0.048 A 
ATOM     25  C   UNL     1      15.015  71.277  16.661  1.00  0.00    +0.030 A 
ATOM     26  C   UNL     1      14.534  68.965  16.357  1.00  0.00    +0.030 A 
ATOM     27  C   UNL     1      15.490  69.959  16.624  1.00  0.00    +0.037 A 
BRANCH  27  28
ATOM     28  N   UNL     1      16.828  69.646  16.820  1.00  0.00    -0.368 N 
ATOM     29  C   UNL     1      17.286  68.955  18.035  1.00  0.00    +0.138 C 
ATOM     30  C   UNL     1      17.783  69.742  15.699  1.00  0.00    +0.138 C 
ATOM     31  C   UNL     1      18.790  69.187  18.277  1.00  0.00    +0.141 C 
ATOM     32  C   UNL     1      18.944  68.739  15.836  1.00  0.00    +0.141 C 
ATOM     33  N   UNL     1      19.628  68.835  17.127  1.00  0.00    -0.339 N 
ATOM     34  C   UNL     1      20.991  68.604  17.191  1.00  0.00    +0.219 C 
ATOM     35  O   UNL     1      21.654  68.265  16.211  1.00  0.00    -0.275 OA
ATOM     36  C   UNL     1      21.650  68.776  18.536  1.00  0.00    +0.114 C 
ENDBRANCH  27  28
ENDBRANCH  21  22
ENDBRANCH   1  21
TORSDOF 7
ENDMDL
MODEL 6
REMARK VINA RESULT:    -8.234      3.186      5.157
REMARK INTER + INTRA:         -12.281
REMARK INTER:                 -11.728
REMARK INTRA:                  -0.553
REMARK UNBOUND:                -0.678
REMARK SMILES CC(=O)N1CCN(c2ccc(OC[C@H]3CO[C@](Cn4ccnc4)(c4ccc(Cl)cc4Cl)O3)cc2)CC1
REMARK SMILES IDX 13 1 14 2 17 3 32 4 16 5 15 6 24 7 30 8 29 9 25 10 27 11
REMARK SMILES IDX 26 12 31 13 28 14 18 15 19 16 20 17 23 18 21 19 22 20 12 21
REMARK SMILES IDX 11 22 10 23 33 24 9 25 34 26 8 27 7 28 6 29 35 30 5 31 36 32
REMARK SMILES IDX 4 33 2 34 3 35 1 36
REMARK H PARENT
ROOT
ATOM      1  C   UNL     1      13.368  72.356  16.943  1.00  0.00    +0.264 C 
ENDROOT
BRANCH   1   2
ATOM      2  C   UNL     1      14.237  71.117  17.135  1.00  0.00    +0.185 C 
ATOM      3  C   UNL     1      15.094  69.305  16.042  1.00  0.00    +0.215 C 
ATOM      4  O   UNL     1      14.844  70.712  15.901  1.00  0.00    -0.335 OA
ATOM      5  O   UNL     1      14.276  68.803  17.129  1.00  0.00    -0.342 OA
ATOM      6  C   UNL     1      13.446  69.898  17.526  1.00  0.00    +0.200 C 
BRANCH   3   7
ATOM      7  C   UNL     1      16.575  69.079  16.385  1.00  0.00    +0.032 A 
ATOM      8  C   UNL     1      17.609  69.142  15.426  1.00  0.00    +0.051 A 
ATOM      9  C   UNL     1      18.946  68.928  15.789  1.00  0.00    +0.041 A 
ATOM     10  C   UNL     1      16.944  68.773  17.714  1.00  0.00    +0.012 A 
ATOM     11  C   UNL     1      19.273  68.640  17.109  1.00  0.00    +0.042 A 
ATOM     12  C   UNL     1      18.278  68.558  18.073  1.00  0.00    +0.021 A 
ATOM     13 Cl   UNL     1      17.326  69.461  13.749  1.00  0.00    -0.084 Cl
ATOM     14 Cl   UNL     1      20.914  68.376  17.547  1.00  0.00    -0.084 Cl
ENDBRANCH   3   7
BRANCH   3  15
ATOM     15  C   UNL     1      14.728  68.542  14.748  1.00  0.00    +0.194 C 
BRANCH  15  16
ATOM     16  N   UNL     1      13.650  69.165  13.998  1.00  0.00    -0.332 N 
ATOM     17  C   UNL     1      12.334  69.215  14.360  1.00  0.00    +0.107 A 
ATOM     18  C   UNL     1      13.780  69.829  12.812  1.00  0.00    +0.199 A 
ATOM     19  C   UNL     1      11.713  69.903  13.344  1.00  0.00    +0.130 A 
ATOM     20  N   UNL     1      12.619  70.271  12.383  1.00  0.00    -0.245 NA
ENDBRANCH  15  16
ENDBRANCH   3  15
ENDBRANCH   1   2
BRANCH   1  21
ATOM     21  O   UNL     1      13.296  73.050  18.193  1.00  0.00    -0.491 OA
BRANCH  21  22
ATOM     22  C   UNL     1      12.054  73.230  18.732  1.00  0.00    +0.119 A 
ATOM     23  C   UNL     1      11.975  74.224  19.702  1.00  0.00    +0.048 A 
ATOM     24  C   UNL     1      10.902  72.525  18.404  1.00  0.00    +0.048 A 
ATOM     25  C   UNL     1      10.758  74.511  20.339  1.00  0.00    +0.030 A 
ATOM     26  C   UNL     1       9.689  72.821  19.046  1.00  0.00    +0.030 A 
ATOM     27  C   UNL     1       9.579  73.821  20.025  1.00  0.00    +0.037 A 
BRANCH  27  28
ATOM     28  N   UNL     1       8.371  74.093  20.654  1.00  0.00    -0.368 N 
ATOM     29  C   UNL     1       7.938  73.346  21.844  1.00  0.00    +0.138 C 
ATOM     30  C   UNL     1       7.622  75.320  20.319  1.00  0.00    +0.138 C 
ATOM     31  C   UNL     1       6.411  73.434  22.036  1.00  0.00    +0.141 C 
ATOM     32  C   UNL     1       6.787  75.835  21.507  1.00  0.00    +0.141 C 
ATOM     33  N   UNL     1       5.904  74.810  22.067  1.00  0.00    -0.339 N 
ATOM     34  C   UNL     1       4.673  75.180  22.575  1.00  0.00    +0.219 C 
ATOM     35  O   UNL     1       4.300  76.352  22.626  1.00  0.00    -0.275 OA
ATOM     36  C   UNL     1       3.783  74.074  23.084  1.00  0.00    +0.114 C 
ENDBRANCH  27  28
ENDBRANCH  21  22
ENDBRANCH   1  21
TORSDOF 7
ENDMDL
MODEL 7
REMARK VINA RESULT:    -8.225      2.951      4.882
REMARK INTER + INTRA:         -12.269
REMARK INTER:                 -11.477
REMARK INTRA:                  -0.792
REMARK UNBOUND:                -0.678
REMARK SMILES CC(=O)N1CCN(c2ccc(OC[C@H]3CO[C@](Cn4ccnc4)(c4ccc(Cl)cc4Cl)O3)cc2)CC1
REMARK SMILES IDX 13 1 14 2 17 3 32 4 16 5 15 6 24 7 30 8 29 9 25 10 27 11
REMARK SMILES IDX 26 12 31 13 28 14 18 15 19 16 20 17 23 18 21 19 22 20 12 21
REMARK SMILES IDX 11 22 10 23 33 24 9 25 34 26 8 27 7 28 6 29 35 30 5 31 36 32
REMARK SMILES IDX 4 33 2 34 3 35 1 36
REMARK H PARENT
ROOT
ATOM      1  C   UNL     1      16.644  69.613  15.620  1.00  0.00    +0.264 C 
ENDROOT
BRANCH   1   2
ATOM      2  C   UNL     1      17.951  69.607  16.407  1.00  0.00    +0.185 C 
ATOM      3  C   UNL     1      18.812  69.382  18.510  1.00  0.00    +0.215 C 
ATOM      4  O   UNL     1      17.828  68.844  17.614  1.00  0.00    -0.335 OA
ATOM      5  O   UNL     1      19.202  70.691  18.024  1.00  0.00    -0.342 OA
ATOM      6  C   UNL     1      18.337  70.968  16.920  1.00  0.00    +0.200 C 
BRANCH   3   7
ATOM      7  C   UNL     1      20.046  68.466  18.528  1.00  0.00    +0.032 A 
ATOM      8  C   UNL     1      21.264  68.823  19.143  1.00  0.00    +0.051 A 
ATOM      9  C   UNL     1      22.363  67.952  19.132  1.00  0.00    +0.041 A 
ATOM     10  C   UNL     1      19.989  67.208  17.888  1.00  0.00    +0.012 A 
ATOM     11  C   UNL     1      22.266  66.716  18.501  1.00  0.00    +0.042 A 
ATOM     12  C   UNL     1      21.085  66.341  17.876  1.00  0.00    +0.021 A 
ATOM     13 Cl   UNL     1      21.518  70.343  19.931  1.00  0.00    -0.084 Cl
ATOM     14 Cl   UNL     1      23.617  65.653  18.489  1.00  0.00    -0.084 Cl
ENDBRANCH   3   7
BRANCH   3  15
ATOM     15  C   UNL     1      18.241  69.529  19.940  1.00  0.00    +0.194 C 
BRANCH  15  16
ATOM     16  N   UNL     1      17.669  70.840  20.200  1.00  0.00    -0.332 N 
ATOM     17  C   UNL     1      16.385  71.230  19.938  1.00  0.00    +0.107 A 
ATOM     18  C   UNL     1      18.315  71.896  20.774  1.00  0.00    +0.199 A 
ATOM     19  C   UNL     1      16.322  72.539  20.356  1.00  0.00    +0.130 A 
ATOM     20  N   UNL     1      17.529  72.945  20.865  1.00  0.00    -0.245 NA
ENDBRANCH  15  16
ENDBRANCH   3  15
ENDBRANCH   1   2
BRANCH   1  21
ATOM     21  O   UNL     1      15.800  68.585  16.147  1.00  0.00    -0.491 OA
BRANCH  21  22
ATOM     22  C   UNL     1      14.619  68.979  16.709  1.00  0.00    +0.119 A 
ATOM     23  C   UNL     1      13.884  69.886  15.952  1.00  0.00    +0.048 A 
ATOM     24  C   UNL     1      14.109  68.566  17.933  1.00  0.00    +0.048 A 
ATOM     25  C   UNL     1      12.653  70.375  16.413  1.00  0.00    +0.030 A 
ATOM     26  C   UNL     1      12.874  69.059  18.385  1.00  0.00    +0.030 A 
ATOM     27  C   UNL     1      12.110  69.971  17.641  1.00  0.00    +0.037 A 
BRANCH  27  28
ATOM     28  N   UNL     1      10.895  70.453  18.109  1.00  0.00    -0.368 N 
ATOM     29  C   UNL     1      10.596  71.893  18.133  1.00  0.00    +0.138 C 
ATOM     30  C   UNL     1       9.766  69.527  18.330  1.00  0.00    +0.138 C 
ATOM     31  C   UNL     1       9.476  72.216  19.141  1.00  0.00    +0.141 C 
ATOM     32  C   UNL     1       8.402  70.214  18.130  1.00  0.00    +0.141 C 
ATOM     33  N   UNL     1       8.256  71.431  18.931  1.00  0.00    -0.339 N 
ATOM     34  C   UNL     1       7.012  71.762  19.438  1.00  0.00    +0.219 C 
ATOM     35  O   UNL     1       6.001  71.103  19.202  1.00  0.00    -0.275 OA
ATOM     36  C   UNL     1       6.935  72.994  20.305  1.00  0.00    +0.114 C 
ENDBRANCH  27  28
ENDBRANCH  21  22
ENDBRANCH   1  21
TORSDOF 7
ENDMDL
MODEL 8
REMARK VINA RESULT:    -8.212      4.419      6.624
REMARK INTER + INTRA:         -12.250
REMARK INTER:                 -11.569
REMARK INTRA:                  -0.681
REMARK UNBOUND:                -0.678
REMARK SMILES CC(=O)N1CCN(c2ccc(OC[C@H]3CO[C@](Cn4ccnc4)(c4ccc(Cl)cc4Cl)O3)cc2)CC1
REMARK SMILES IDX 13 1 14 2 17 3 32 4 16 5 15 6 24 7 30 8 29 9 25 10 27 11
REMARK SMILES IDX 26 12 31 13 28 14 18 15 19 16 20 17 23 18 21 19 22 20 12 21
REMARK SMILES IDX 11 22 10 23 33 24 9 25 34 26 8 27 7 28 6 29 35 30 5 31 36 32
REMARK SMILES IDX 4 33 2 34 3 35 1 36
REMARK H PARENT
ROOT
ATOM      1  C   UNL     1      19.785  69.333  17.010  1.00  0.00    +0.264 C 
ENDROOT
BRANCH   1   2
ATOM      2  C   UNL     1      20.687  68.232  17.560  1.00  0.00    +0.185 C 
ATOM      3  C   UNL     1      21.723  67.503  19.460  1.00  0.00    +0.215 C 
ATOM      4  O   UNL     1      20.491  68.054  18.968  1.00  0.00    -0.335 OA
ATOM      5  O   UNL     1      22.757  67.751  18.475  1.00  0.00    -0.342 OA
ATOM      6  C   UNL     1      22.150  68.572  17.474  1.00  0.00    +0.200 C 
BRANCH   3   7
ATOM      7  C   UNL     1      21.566  65.986  19.649  1.00  0.00    +0.032 A 
ATOM      8  C   UNL     1      20.643  65.411  20.548  1.00  0.00    +0.051 A 
ATOM      9  C   UNL     1      20.537  64.020  20.686  1.00  0.00    +0.041 A 
ATOM     10  C   UNL     1      22.387  65.102  18.914  1.00  0.00    +0.012 A 
ATOM     11  C   UNL     1      21.355  63.181  19.937  1.00  0.00    +0.042 A 
ATOM     12  C   UNL     1      22.282  63.716  19.053  1.00  0.00    +0.021 A 
ATOM     13 Cl   UNL     1      19.594  66.348  21.557  1.00  0.00    -0.084 Cl
ATOM     14 Cl   UNL     1      21.223  61.475  20.112  1.00  0.00    -0.084 Cl
ENDBRANCH   3   7
BRANCH   3  15
ATOM     15  C   UNL     1      22.135  68.164  20.795  1.00  0.00    +0.194 C 
BRANCH  15  16
ATOM     16  N   UNL     1      23.343  67.597  21.370  1.00  0.00    -0.332 N 
ATOM     17  C   UNL     1      24.626  67.856  20.977  1.00  0.00    +0.107 A 
ATOM     18  C   UNL     1      23.398  66.726  22.419  1.00  0.00    +0.199 A 
ATOM     19  C   UNL     1      25.412  67.096  21.811  1.00  0.00    +0.130 A 
ATOM     20  N   UNL     1      24.638  66.391  22.698  1.00  0.00    -0.245 NA
ENDBRANCH  15  16
ENDBRANCH   3  15
ENDBRANCH   1   2
BRANCH   1  21
ATOM     21  O   UNL     1      19.259  68.894  15.754  1.00  0.00    -0.491 OA
BRANCH  21  22
ATOM     22  C   UNL     1      17.913  69.031  15.562  1.00  0.00    +0.119 A 
ATOM     23  C   UNL     1      17.186  69.331  16.710  1.00  0.00    +0.048 A 
ATOM     24  C   UNL     1      17.233  68.897  14.358  1.00  0.00    +0.048 A 
ATOM     25  C   UNL     1      15.794  69.495  16.655  1.00  0.00    +0.030 A 
ATOM     26  C   UNL     1      15.840  69.066  14.313  1.00  0.00    +0.030 A 
ATOM     27  C   UNL     1      15.081  69.372  15.454  1.00  0.00    +0.037 A 
BRANCH  27  28
ATOM     28  N   UNL     1      13.703  69.527  15.390  1.00  0.00    -0.368 N 
ATOM     29  C   UNL     1      12.990  70.454  16.282  1.00  0.00    +0.138 C 
ATOM     30  C   UNL     1      12.950  68.983  14.242  1.00  0.00    +0.138 C 
ATOM     31  C   UNL     1      11.500  70.081  16.402  1.00  0.00    +0.141 C 
ATOM     32  C   UNL     1      11.681  69.802  13.938  1.00  0.00    +0.141 C 
ATOM     33  N   UNL     1      10.819  69.970  15.109  1.00  0.00    -0.339 N 
ATOM     34  C   UNL     1       9.446  70.007  14.940  1.00  0.00    +0.219 C 
ATOM     35  O   UNL     1       8.912  69.958  13.832  1.00  0.00    -0.275 OA
ATOM     36  C   UNL     1       8.607  70.122  16.187  1.00  0.00    +0.114 C 
ENDBRANCH  27  28
ENDBRANCH  21  22
ENDBRANCH   1  21
TORSDOF 7
ENDMDL
MODEL 9
REMARK VINA RESULT:    -8.083      3.775     10.685
REMARK INTER + INTRA:         -12.069
REMARK INTER:                 -11.399
REMARK INTRA:                  -0.670
REMARK UNBOUND:                -0.678
REMARK SMILES CC(=O)N1CCN(c2ccc(OC[C@H]3CO[C@](Cn4ccnc4)(c4ccc(Cl)cc4Cl)O3)cc2)CC1
REMARK SMILES IDX 13 1 14 2 17 3 32 4 16 5 15 6 24 7 30 8 29 9 25 10 27 11
REMARK SMILES IDX 26 12 31 13 28 14 18 15 19 16 20 17 23 18 21 19 22 20 12 21
REMARK SMILES IDX 11 22 10 23 33 24 9 25 34 26 8 27 7 28 6 29 35 30 5 31 36 32
REMARK SMILES IDX 4 33 2 34 3 35 1 36
REMARK H PARENT
ROOT
ATOM      1  C   UNL     1      14.852  69.227  16.886  1.00  0.00    +0.264 C 
ENDROOT
BRANCH   1   2
ATOM      2  C   UNL     1      13.771  70.293  17.044  1.00  0.00    +0.185 C 
ATOM      3  C   UNL     1      11.806  71.042  16.154  1.00  0.00    +0.215 C 
ATOM      4  O   UNL     1      12.519  69.847  16.508  1.00  0.00    -0.335 OA
ATOM      5  O   UNL     1      12.759  72.132  16.069  1.00  0.00    -0.342 OA
ATOM      6  C   UNL     1      14.047  71.534  16.238  1.00  0.00    +0.200 C 
BRANCH   3   7
ATOM      7  C   UNL     1      10.772  71.365  17.244  1.00  0.00    +0.032 A 
ATOM      8  C   UNL     1       9.550  70.673  17.379  1.00  0.00    +0.051 A 
ATOM      9  C   UNL     1       8.638  71.005  18.391  1.00  0.00    +0.041 A 
ATOM     10  C   UNL     1      11.025  72.413  18.157  1.00  0.00    +0.012 A 
ATOM     11  C   UNL     1       8.926  72.036  19.278  1.00  0.00    +0.042 A 
ATOM     12  C   UNL     1      10.115  72.744  19.164  1.00  0.00    +0.021 A 
ATOM     13 Cl   UNL     1       9.063  69.395  16.318  1.00  0.00    -0.084 Cl
ATOM     14 Cl   UNL     1       7.803  72.441  20.516  1.00  0.00    -0.084 Cl
ENDBRANCH   3   7
BRANCH   3  15
ATOM     15  C   UNL     1      11.102  70.886  14.786  1.00  0.00    +0.194 C 
BRANCH  15  16
ATOM     16  N   UNL     1      11.765  69.941  13.902  1.00  0.00    -0.332 N 
ATOM     17  C   UNL     1      12.833  70.202  13.090  1.00  0.00    +0.107 A 
ATOM     18  C   UNL     1      11.443  68.623  13.754  1.00  0.00    +0.199 A 
ATOM     19  C   UNL     1      13.098  69.009  12.460  1.00  0.00    +0.130 A 
ATOM     20  N   UNL     1      12.223  68.037  12.873  1.00  0.00    -0.245 NA
ENDBRANCH  15  16
ENDBRANCH   3  15
ENDBRANCH   1   2
BRANCH   1  21
ATOM     21  O   UNL     1      16.008  69.844  16.311  1.00  0.00    -0.491 OA
BRANCH  21  22
ATOM     22  C   UNL     1      17.224  69.448  16.788  1.00  0.00    +0.119 A 
ATOM     23  C   UNL     1      17.391  69.593  18.162  1.00  0.00    +0.048 A 
ATOM     24  C   UNL     1      18.276  68.931  16.041  1.00  0.00    +0.048 A 
ATOM     25  C   UNL     1      18.594  69.227  18.782  1.00  0.00    +0.030 A 
ATOM     26  C   UNL     1      19.476  68.565  16.671  1.00  0.00    +0.030 A 
ATOM     27  C   UNL     1      19.670  68.697  18.056  1.00  0.00    +0.037 A 
BRANCH  27  28
ATOM     28  N   UNL     1      20.867  68.337  18.659  1.00  0.00    -0.368 N 
ATOM     29  C   UNL     1      20.954  68.080  20.104  1.00  0.00    +0.138 C 
ATOM     30  C   UNL     1      22.019  67.926  17.831  1.00  0.00    +0.138 C 
ATOM     31  C   UNL     1      22.402  68.224  20.612  1.00  0.00    +0.141 C 
ATOM     32  C   UNL     1      22.931  66.922  18.561  1.00  0.00    +0.141 C 
ATOM     33  N   UNL     1      23.365  67.400  19.875  1.00  0.00    -0.339 N 
ATOM     34  C   UNL     1      24.625  67.065  20.336  1.00  0.00    +0.219 C 
ATOM     35  O   UNL     1      25.389  66.332  19.709  1.00  0.00    -0.275 OA
ATOM     36  C   UNL     1      25.038  67.635  21.669  1.00  0.00    +0.114 C 
ENDBRANCH  27  28
ENDBRANCH  21  22
ENDBRANCH   1  21
TORSDOF 7
ENDMDL
