MODEL 1
REMARK VINA RESULT:    -6.937      0.000      0.000
REMARK INTER + INTRA:         -10.585
REMARK INTER:                  -9.775
REMARK INTRA:                  -0.810
REMARK UNBOUND:                -0.810
REMARK SMILES CC(=O)N1CCN(c2ccc(OC[C@H]3CO[C@](Cn4ccnc4)(c4ccc(Cl)cc4Cl)O3)cc2)CC1
REMARK SMILES IDX 13 1 14 2 17 3 32 4 16 5 15 6 24 7 30 8 29 9 25 10 27 11
REMARK SMILES IDX 26 12 31 13 28 14 18 15 19 16 20 17 23 18 21 19 22 20 12 21
REMARK SMILES IDX 11 22 10 23 33 24 9 25 34 26 8 27 7 28 6 29 35 30 5 31 36 32
REMARK SMILES IDX 4 33 2 34 3 35 1 36
REMARK H PARENT
ROOT
ATOM      1  C   UNL     1      -2.354  16.027   2.458  1.00  0.00    +0.264 C 
ENDROOT
BRANCH   1   2
ATOM      2  C   UNL     1      -3.045  15.352   3.639  1.00  0.00    +0.185 C 
ATOM      3  C   UNL     1      -4.476  15.735   5.376  1.00  0.00    +0.215 C 
ATOM      4  O   UNL     1      -4.260  16.028   3.988  1.00  0.00    -0.335 OA
ATOM      5  O   UNL     1      -3.225  15.275   5.945  1.00  0.00    -0.342 OA
ATOM      6  C   UNL     1      -2.248  15.436   4.914  1.00  0.00    +0.200 C 
BRANCH   3   7
ATOM      7  C   UNL     1      -5.526  14.620   5.508  1.00  0.00    +0.032 A 
ATOM      8  C   UNL     1      -6.829  14.718   4.974  1.00  0.00    +0.051 A 
ATOM      9  C   UNL     1      -7.751  13.673   5.121  1.00  0.00    +0.041 A 
ATOM     10  C   UNL     1      -5.203  13.437   6.209  1.00  0.00    +0.012 A 
ATOM     11  C   UNL     1      -7.393  12.519   5.809  1.00  0.00    +0.042 A 
ATOM     12  C   UNL     1      -6.124  12.397   6.357  1.00  0.00    +0.021 A 
ATOM     13 Cl   UNL     1      -7.402  16.114   4.128  1.00  0.00    -0.084 Cl
ATOM     14 Cl   UNL     1      -8.530  11.241   5.988  1.00  0.00    -0.084 Cl
ENDBRANCH   3   7
BRANCH   3  15
ATOM     15  C   UNL     1      -4.942  16.994   6.144  1.00  0.00    +0.194 C 
BRANCH  15  16
ATOM     16  N   UNL     1      -4.470  17.038   7.518  1.00  0.00    -0.332 N 
ATOM     17  C   UNL     1      -3.454  17.813   8.002  1.00  0.00    +0.107 A 
ATOM     18  C   UNL     1      -4.983  16.326   8.564  1.00  0.00    +0.199 A 
ATOM     19  C   UNL     1      -3.386  17.511   9.342  1.00  0.00    +0.130 A 
ATOM     20  N   UNL     1      -4.334  16.579   9.678  1.00  0.00    -0.245 NA
ENDBRANCH  15  16
ENDBRANCH   3  15
ENDBRANCH   1   2
BRANCH   1  21
ATOM     21  O   UNL     1      -2.526  15.196   1.306  1.00  0.00    -0.491 OA
BRANCH  21  22
ATOM     22  C   UNL     1      -1.406  14.598   0.800  1.00  0.00    +0.119 A 
ATOM     23  C   UNL     1      -0.265  15.394   0.804  1.00  0.00    +0.048 A 
ATOM     24  C   UNL     1      -1.317  13.306   0.296  1.00  0.00    +0.048 A 
ATOM     25  C   UNL     1       0.953  14.904   0.309  1.00  0.00    +0.030 A 
ATOM     26  C   UNL     1      -0.093  12.825  -0.194  1.00  0.00    +0.030 A 
ATOM     27  C   UNL     1       1.076  13.603  -0.199  1.00  0.00    +0.037 A 
BRANCH  27  28
ATOM     28  N   UNL     1       2.275  13.111  -0.696  1.00  0.00    -0.368 N 
ATOM     29  C   UNL     1       3.461  12.965   0.161  1.00  0.00    +0.138 C 
ATOM     30  C   UNL     1       2.315  12.456  -2.019  1.00  0.00    +0.138 C 
ATOM     31  C   UNL     1       4.754  12.921  -0.676  1.00  0.00    +0.141 C 
ATOM     32  C   UNL     1       3.419  11.386  -2.106  1.00  0.00    +0.141 C 
ATOM     33  N   UNL     1       4.737  11.898  -1.726  1.00  0.00    -0.339 N 
ATOM     34  C   UNL     1       5.863  11.408  -2.362  1.00  0.00    +0.219 C 
ATOM     35  O   UNL     1       5.814  10.515  -3.207  1.00  0.00    -0.275 OA
ATOM     36  C   UNL     1       7.187  12.015  -1.971  1.00  0.00    +0.114 C 
ENDBRANCH  27  28
ENDBRANCH  21  22
ENDBRANCH   1  21
TORSDOF 7
ENDMDL
MODEL 2
REMARK VINA RESULT:    -6.876      3.979     10.894
REMARK INTER + INTRA:         -10.499
REMARK INTER:                  -9.217
REMARK INTRA:                  -1.282
REMARK UNBOUND:                -0.810
REMARK SMILES CC(=O)N1CCN(c2ccc(OC[C@H]3CO[C@](Cn4ccnc4)(c4ccc(Cl)cc4Cl)O3)cc2)CC1
REMARK SMILES IDX 13 1 14 2 17 3 32 4 16 5 15 6 24 7 30 8 29 9 25 10 27 11
REMARK SMILES IDX 26 12 31 13 28 14 18 15 19 16 20 17 23 18 21 19 22 20 12 21
REMARK SMILES IDX 11 22 10 23 33 24 9 25 34 26 8 27 7 28 6 29 35 30 5 31 36 32
REMARK SMILES IDX 4 33 2 34 3 35 1 36
REMARK H PARENT
ROOT
ATOM      1  C   UNL     1      -1.553  12.369  -0.117  1.00  0.00    +0.264 C 
ENDROOT
BRANCH   1   2
ATOM      2  C   UNL     1      -0.239  12.346  -0.892  1.00  0.00    +0.185 C 
ATOM      3  C   UNL     1       1.556  13.631  -1.474  1.00  0.00    +0.215 C 
ATOM      4  O   UNL     1       0.684  13.314  -0.378  1.00  0.00    -0.335 OA
ATOM      5  O   UNL     1       0.915  13.208  -2.703  1.00  0.00    -0.342 OA
ATOM      6  C   UNL     1      -0.394  12.772  -2.327  1.00  0.00    +0.200 C 
BRANCH   3   7
ATOM      7  C   UNL     1       2.881  12.868  -1.312  1.00  0.00    +0.032 A 
ATOM      8  C   UNL     1       3.774  13.088  -0.242  1.00  0.00    +0.051 A 
ATOM      9  C   UNL     1       4.971  12.367  -0.139  1.00  0.00    +0.041 A 
ATOM     10  C   UNL     1       3.255  11.908  -2.279  1.00  0.00    +0.012 A 
ATOM     11  C   UNL     1       5.301  11.421  -1.103  1.00  0.00    +0.042 A 
ATOM     12  C   UNL     1       4.450  11.190  -2.175  1.00  0.00    +0.021 A 
ATOM     13 Cl   UNL     1       3.491  14.258   1.002  1.00  0.00    -0.084 Cl
ATOM     14 Cl   UNL     1       6.772  10.541  -0.972  1.00  0.00    -0.084 Cl
ENDBRANCH   3   7
BRANCH   3  15
ATOM     15  C   UNL     1       1.827  15.151  -1.549  1.00  0.00    +0.194 C 
BRANCH  15  16
ATOM     16  N   UNL     1       0.770  15.954  -0.956  1.00  0.00    -0.332 N 
ATOM     17  C   UNL     1      -0.407  16.311  -1.550  1.00  0.00    +0.107 A 
ATOM     18  C   UNL     1       0.769  16.466   0.310  1.00  0.00    +0.199 A 
ATOM     19  C   UNL     1      -1.070  17.057  -0.604  1.00  0.00    +0.130 A 
ATOM     20  N   UNL     1      -0.326  17.154   0.545  1.00  0.00    -0.245 NA
ENDBRANCH  15  16
ENDBRANCH   3  15
ENDBRANCH   1   2
BRANCH   1  21
ATOM     21  O   UNL     1      -1.946  13.734   0.057  1.00  0.00    -0.491 OA
BRANCH  21  22
ATOM     22  C   UNL     1      -2.581  14.053   1.223  1.00  0.00    +0.119 A 
ATOM     23  C   UNL     1      -1.749  14.519   2.235  1.00  0.00    +0.048 A 
ATOM     24  C   UNL     1      -3.944  13.952   1.474  1.00  0.00    +0.048 A 
ATOM     25  C   UNL     1      -2.271  14.880   3.486  1.00  0.00    +0.030 A 
ATOM     26  C   UNL     1      -4.458  14.318   2.729  1.00  0.00    +0.030 A 
ATOM     27  C   UNL     1      -3.642  14.795   3.767  1.00  0.00    +0.037 A 
BRANCH  27  28
ATOM     28  N   UNL     1      -4.169  15.143   5.003  1.00  0.00    -0.368 N 
ATOM     29  C   UNL     1      -4.408  16.548   5.370  1.00  0.00    +0.138 C 
ATOM     30  C   UNL     1      -4.767  14.110   5.872  1.00  0.00    +0.138 C 
ATOM     31  C   UNL     1      -4.477  16.724   6.899  1.00  0.00    +0.141 C 
ATOM     32  C   UNL     1      -5.884  14.677   6.768  1.00  0.00    +0.141 C 
ATOM     33  N   UNL     1      -5.452  15.841   7.546  1.00  0.00    -0.339 N 
ATOM     34  C   UNL     1      -5.966  16.036   8.815  1.00  0.00    +0.219 C 
ATOM     35  O   UNL     1      -6.819  15.298   9.307  1.00  0.00    -0.275 OA
ATOM     36  C   UNL     1      -5.440  17.217   9.590  1.00  0.00    +0.114 C 
ENDBRANCH  27  28
ENDBRANCH  21  22
ENDBRANCH   1  21
TORSDOF 7
ENDMDL
MODEL 3
REMARK VINA RESULT:    -6.804      1.172      1.622
REMARK INTER + INTRA:         -10.398
REMARK INTER:                  -9.601
REMARK INTRA:                  -0.797
REMARK UNBOUND:                -0.810
REMARK SMILES CC(=O)N1CCN(c2ccc(OC[C@H]3CO[C@](Cn4ccnc4)(c4ccc(Cl)cc4Cl)O3)cc2)CC1
REMARK SMILES IDX 13 1 14 2 17 3 32 4 16 5 15 6 24 7 30 8 29 9 25 10 27 11
REMARK SMILES IDX 26 12 31 13 28 14 18 15 19 16 20 17 23 18 21 19 22 20 12 21
REMARK SMILES IDX 11 22 10 23 33 24 9 25 34 26 8 27 7 28 6 29 35 30 5 31 36 32
REMARK SMILES IDX 4 33 2 34 3 35 1 36
REMARK H PARENT
ROOT
ATOM      1  C   UNL     1      -2.781  15.019   1.572  1.00  0.00    +0.264 C 
ENDROOT
BRANCH   1   2
ATOM      2  C   UNL     1      -3.390  14.634   2.916  1.00  0.00    +0.185 C 
ATOM      3  C   UNL     1      -4.709  15.412   4.610  1.00  0.00    +0.215 C 
ATOM      4  O   UNL     1      -4.584  15.382   3.180  1.00  0.00    -0.335 OA
ATOM      5  O   UNL     1      -3.421  15.080   5.187  1.00  0.00    -0.342 OA
ATOM      6  C   UNL     1      -2.513  14.996   4.085  1.00  0.00    +0.200 C 
BRANCH   3   7
ATOM      7  C   UNL     1      -5.741  14.365   5.057  1.00  0.00    +0.032 A 
ATOM      8  C   UNL     1      -7.087  14.377   4.634  1.00  0.00    +0.051 A 
ATOM      9  C   UNL     1      -7.992  13.399   5.070  1.00  0.00    +0.041 A 
ATOM     10  C   UNL     1      -5.354  13.341   5.950  1.00  0.00    +0.012 A 
ATOM     11  C   UNL     1      -7.572  12.400   5.940  1.00  0.00    +0.042 A 
ATOM     12  C   UNL     1      -6.258  12.367   6.385  1.00  0.00    +0.021 A 
ATOM     13 Cl   UNL     1      -7.737  15.585   3.578  1.00  0.00    -0.084 Cl
ATOM     14 Cl   UNL     1      -8.687  11.204   6.474  1.00  0.00    -0.084 Cl
ENDBRANCH   3   7
BRANCH   3  15
ATOM     15  C   UNL     1      -5.131  16.815   5.103  1.00  0.00    +0.194 C 
BRANCH  15  16
ATOM     16  N   UNL     1      -4.436  17.236   6.308  1.00  0.00    -0.332 N 
ATOM     17  C   UNL     1      -3.444  18.172   6.387  1.00  0.00    +0.107 A 
ATOM     18  C   UNL     1      -4.678  16.781   7.572  1.00  0.00    +0.199 A 
ATOM     19  C   UNL     1      -3.111  18.224   7.720  1.00  0.00    +0.130 A 
ATOM     20  N   UNL     1      -3.878  17.349   8.446  1.00  0.00    -0.245 NA
ENDBRANCH  15  16
ENDBRANCH   3  15
ENDBRANCH   1   2
BRANCH   1  21
ATOM     21  O   UNL     1      -2.411  13.818   0.888  1.00  0.00    -0.491 OA
BRANCH  21  22
ATOM     22  C   UNL     1      -1.085  13.646   0.607  1.00  0.00    +0.119 A 
ATOM     23  C   UNL     1      -0.820  12.923  -0.551  1.00  0.00    +0.048 A 
ATOM     24  C   UNL     1      -0.016  14.117   1.359  1.00  0.00    +0.048 A 
ATOM     25  C   UNL     1       0.499  12.672  -0.954  1.00  0.00    +0.030 A 
ATOM     26  C   UNL     1       1.302  13.862   0.946  1.00  0.00    +0.030 A 
ATOM     27  C   UNL     1       1.599  13.138  -0.220  1.00  0.00    +0.037 A 
BRANCH  27  28
ATOM     28  N   UNL     1       2.909  12.890  -0.607  1.00  0.00    -0.368 N 
ATOM     29  C   UNL     1       3.350  13.078  -1.998  1.00  0.00    +0.138 C 
ATOM     30  C   UNL     1       3.960  12.706   0.414  1.00  0.00    +0.138 C 
ATOM     31  C   UNL     1       4.626  12.267  -2.295  1.00  0.00    +0.141 C 
ATOM     32  C   UNL     1       5.344  13.160  -0.088  1.00  0.00    +0.141 C 
ATOM     33  N   UNL     1       5.721  12.536  -1.358  1.00  0.00    -0.339 N 
ATOM     34  C   UNL     1       7.050  12.236  -1.597  1.00  0.00    +0.219 C 
ATOM     35  O   UNL     1       7.948  12.519  -0.805  1.00  0.00    -0.275 OA
ATOM     36  C   UNL     1       7.369  11.540  -2.896  1.00  0.00    +0.114 C 
ENDBRANCH  27  28
ENDBRANCH  21  22
ENDBRANCH   1  21
TORSDOF 7
ENDMDL
MODEL 4
REMARK VINA RESULT:    -6.700      2.557      4.346
REMARK INTER + INTRA:         -10.252
REMARK INTER:                  -9.516
REMARK INTRA:                  -0.736
REMARK UNBOUND:                -0.810
REMARK SMILES CC(=O)N1CCN(c2ccc(OC[C@H]3CO[C@](Cn4ccnc4)(c4ccc(Cl)cc4Cl)O3)cc2)CC1
REMARK SMILES IDX 13 1 14 2 17 3 32 4 16 5 15 6 24 7 30 8 29 9 25 10 27 11
REMARK SMILES IDX 26 12 31 13 28 14 18 15 19 16 20 17 23 18 21 19 22 20 12 21
REMARK SMILES IDX 11 22 10 23 33 24 9 25 34 26 8 27 7 28 6 29 35 30 5 31 36 32
REMARK SMILES IDX 4 33 2 34 3 35 1 36
REMARK H PARENT
ROOT
ATOM      1  C   UNL     1      -5.163  13.041   1.739  1.00  0.00    +0.264 C 
ENDROOT
BRANCH   1   2
ATOM      2  C   UNL     1      -5.195  14.122   2.815  1.00  0.00    +0.185 C 
ATOM      3  C   UNL     1      -4.997  14.461   5.065  1.00  0.00    +0.215 C 
ATOM      4  O   UNL     1      -4.429  13.735   3.964  1.00  0.00    -0.335 OA
ATOM      5  O   UNL     1      -6.316  14.920   4.676  1.00  0.00    -0.342 OA
ATOM      6  C   UNL     1      -6.567  14.336   3.395  1.00  0.00    +0.200 C 
BRANCH   3   7
ATOM      7  C   UNL     1      -4.117  15.681   5.383  1.00  0.00    +0.032 A 
ATOM      8  C   UNL     1      -4.544  16.751   6.197  1.00  0.00    +0.051 A 
ATOM      9  C   UNL     1      -3.704  17.842   6.457  1.00  0.00    +0.041 A 
ATOM     10  C   UNL     1      -2.819  15.767   4.832  1.00  0.00    +0.012 A 
ATOM     11  C   UNL     1      -2.429  17.887   5.906  1.00  0.00    +0.042 A 
ATOM     12  C   UNL     1      -1.983  16.856   5.091  1.00  0.00    +0.021 A 
ATOM     13 Cl   UNL     1      -6.118  16.826   6.913  1.00  0.00    -0.084 Cl
ATOM     14 Cl   UNL     1      -1.402  19.229   6.228  1.00  0.00    -0.084 Cl
ENDBRANCH   3   7
BRANCH   3  15
ATOM     15  C   UNL     1      -5.128  13.562   6.315  1.00  0.00    +0.194 C 
BRANCH  15  16
ATOM     16  N   UNL     1      -6.259  12.651   6.254  1.00  0.00    -0.332 N 
ATOM     17  C   UNL     1      -7.473  12.824   6.857  1.00  0.00    +0.107 A 
ATOM     18  C   UNL     1      -6.304  11.477   5.559  1.00  0.00    +0.199 A 
ATOM     19  C   UNL     1      -8.203  11.712   6.508  1.00  0.00    +0.130 A 
ATOM     20  N   UNL     1      -7.464  10.878   5.709  1.00  0.00    -0.245 NA
ENDBRANCH  15  16
ENDBRANCH   3  15
ENDBRANCH   1   2
BRANCH   1  21
ATOM     21  O   UNL     1      -4.587  13.604   0.556  1.00  0.00    -0.491 OA
BRANCH  21  22
ATOM     22  C   UNL     1      -3.256  13.380   0.348  1.00  0.00    +0.119 A 
ATOM     23  C   UNL     1      -2.408  14.351   0.871  1.00  0.00    +0.048 A 
ATOM     24  C   UNL     1      -2.697  12.299  -0.323  1.00  0.00    +0.048 A 
ATOM     25  C   UNL     1      -1.018  14.245   0.725  1.00  0.00    +0.030 A 
ATOM     26  C   UNL     1      -1.303  12.200  -0.462  1.00  0.00    +0.030 A 
ATOM     27  C   UNL     1      -0.424  13.164   0.059  1.00  0.00    +0.037 A 
BRANCH  27  28
ATOM     28  N   UNL     1       0.951  13.052  -0.096  1.00  0.00    -0.368 N 
ATOM     29  C   UNL     1       1.563  12.859  -1.420  1.00  0.00    +0.138 C 
ATOM     30  C   UNL     1       1.853  13.405   1.018  1.00  0.00    +0.138 C 
ATOM     31  C   UNL     1       2.972  12.247  -1.301  1.00  0.00    +0.141 C 
ATOM     32  C   UNL     1       3.217  13.921   0.522  1.00  0.00    +0.141 C 
ATOM     33  N   UNL     1       3.865  13.002  -0.416  1.00  0.00    -0.339 N 
ATOM     34  C   UNL     1       5.244  12.893  -0.414  1.00  0.00    +0.219 C 
ATOM     35  O   UNL     1       5.963  13.578   0.313  1.00  0.00    -0.275 OA
ATOM     36  C   UNL     1       5.850  11.888  -1.360  1.00  0.00    +0.114 C 
ENDBRANCH  27  28
ENDBRANCH  21  22
ENDBRANCH   1  21
TORSDOF 7
ENDMDL
MODEL 5
REMARK VINA RESULT:    -6.633      4.175     11.876
REMARK INTER + INTRA:         -10.157
REMARK INTER:                  -9.490
REMARK INTRA:                  -0.667
REMARK UNBOUND:                -0.810
REMARK SMILES CC(=O)N1CCN(c2ccc(OC[C@H]3CO[C@](Cn4ccnc4)(c4ccc(Cl)cc4Cl)O3)cc2)CC1
REMARK SMILES IDX 13 1 14 2 17 3 32 4 16 5 15 6 24 7 30 8 29 9 25 10 27 11
REMARK SMILES IDX 26 12 31 13 28 14 18 15 19 16 20 17 23 18 21 19 22 20 12 21
REMARK SMILES IDX 11 22 10 23 33 24 9 25 34 26 8 27 7 28 6 29 35 30 5 31 36 32
REMARK SMILES IDX 4 33 2 34 3 35 1 36
REMARK H PARENT
ROOT
ATOM      1  C   UNL     1      -0.380  14.884  -0.111  1.00  0.00    +0.264 C 
ENDROOT
BRANCH   1   2
ATOM      2  C   UNL     1       1.099  14.688   0.206  1.00  0.00    +0.185 C 
ATOM      3  C   UNL     1       3.139  14.332  -0.758  1.00  0.00    +0.215 C 
ATOM      4  O   UNL     1       1.925  15.086  -0.896  1.00  0.00    -0.335 OA
ATOM      5  O   UNL     1       2.881  13.213   0.127  1.00  0.00    -0.342 OA
ATOM      6  C   UNL     1       1.475  13.242   0.389  1.00  0.00    +0.200 C 
BRANCH   3   7
ATOM      7  C   UNL     1       4.227  15.221  -0.136  1.00  0.00    +0.032 A 
ATOM      8  C   UNL     1       4.461  16.553  -0.540  1.00  0.00    +0.051 A 
ATOM      9  C   UNL     1       5.467  17.324   0.058  1.00  0.00    +0.041 A 
ATOM     10  C   UNL     1       5.060  14.698   0.878  1.00  0.00    +0.012 A 
ATOM     11  C   UNL     1       6.260  16.779   1.061  1.00  0.00    +0.042 A 
ATOM     12  C   UNL     1       6.064  15.468   1.472  1.00  0.00    +0.021 A 
ATOM     13 Cl   UNL     1       3.562  17.333  -1.797  1.00  0.00    -0.084 Cl
ATOM     14 Cl   UNL     1       7.495  17.729   1.790  1.00  0.00    -0.084 Cl
ENDBRANCH   3   7
BRANCH   3  15
ATOM     15  C   UNL     1       3.615  13.789  -2.125  1.00  0.00    +0.194 C 
BRANCH  15  16
ATOM     16  N   UNL     1       4.232  12.476  -2.040  1.00  0.00    -0.332 N 
ATOM     17  C   UNL     1       3.657  11.286  -2.387  1.00  0.00    +0.107 A 
ATOM     18  C   UNL     1       5.505  12.215  -1.620  1.00  0.00    +0.199 A 
ATOM     19  C   UNL     1       4.622  10.340  -2.135  1.00  0.00    +0.130 A 
ATOM     20  N   UNL     1       5.763  10.927  -1.650  1.00  0.00    -0.245 NA
ENDBRANCH  15  16
ENDBRANCH   3  15
ENDBRANCH   1   2
BRANCH   1  21
ATOM     21  O   UNL     1      -1.100  13.757   0.399  1.00  0.00    -0.491 OA
BRANCH  21  22
ATOM     22  C   UNL     1      -2.069  14.009   1.328  1.00  0.00    +0.119 A 
ATOM     23  C   UNL     1      -1.617  14.606   2.500  1.00  0.00    +0.048 A 
ATOM     24  C   UNL     1      -3.424  13.725   1.204  1.00  0.00    +0.048 A 
ATOM     25  C   UNL     1      -2.508  14.917   3.537  1.00  0.00    +0.030 A 
ATOM     26  C   UNL     1      -4.309  14.042   2.247  1.00  0.00    +0.030 A 
ATOM     27  C   UNL     1      -3.881  14.649   3.439  1.00  0.00    +0.037 A 
BRANCH  27  28
ATOM     28  N   UNL     1      -4.770  14.947   4.463  1.00  0.00    -0.368 N 
ATOM     29  C   UNL     1      -5.705  16.078   4.365  1.00  0.00    +0.138 C 
ATOM     30  C   UNL     1      -5.001  13.974   5.550  1.00  0.00    +0.138 C 
ATOM     31  C   UNL     1      -6.187  16.528   5.757  1.00  0.00    +0.141 C 
ATOM     32  C   UNL     1      -6.422  14.081   6.135  1.00  0.00    +0.141 C 
ATOM     33  N   UNL     1      -6.762  15.441   6.557  1.00  0.00    -0.339 N 
ATOM     34  C   UNL     1      -7.577  15.625   7.659  1.00  0.00    +0.219 C 
ATOM     35  O   UNL     1      -8.079  14.687   8.278  1.00  0.00    -0.275 OA
ATOM     36  C   UNL     1      -7.843  17.048   8.082  1.00  0.00    +0.114 C 
ENDBRANCH  27  28
ENDBRANCH  21  22
ENDBRANCH   1  21
TORSDOF 7
ENDMDL
MODEL 6
REMARK VINA RESULT:    -6.619      5.534      6.940
REMARK INTER + INTRA:         -10.137
REMARK INTER:                  -8.662
REMARK INTRA:                  -1.474
REMARK UNBOUND:                -0.810
REMARK SMILES CC(=O)N1CCN(c2ccc(OC[C@H]3CO[C@](Cn4ccnc4)(c4ccc(Cl)cc4Cl)O3)cc2)CC1
REMARK SMILES IDX 13 1 14 2 17 3 32 4 16 5 15 6 24 7 30 8 29 9 25 10 27 11
REMARK SMILES IDX 26 12 31 13 28 14 18 15 19 16 20 17 23 18 21 19 22 20 12 21
REMARK SMILES IDX 11 22 10 23 33 24 9 25 34 26 8 27 7 28 6 29 35 30 5 31 36 32
REMARK SMILES IDX 4 33 2 34 3 35 1 36
REMARK H PARENT
ROOT
ATOM      1  C   UNL     1      -2.123  11.659  -0.209  1.00  0.00    +0.264 C 
ENDROOT
BRANCH   1   2
ATOM      2  C   UNL     1      -3.492  12.232  -0.562  1.00  0.00    +0.185 C 
ATOM      3  C   UNL     1      -4.554  14.145  -1.218  1.00  0.00    +0.215 C 
ATOM      4  O   UNL     1      -3.374  13.358  -1.442  1.00  0.00    -0.335 OA
ATOM      5  O   UNL     1      -5.135  13.744   0.048  1.00  0.00    -0.342 OA
ATOM      6  C   UNL     1      -4.208  12.819   0.624  1.00  0.00    +0.200 C 
BRANCH   3   7
ATOM      7  C   UNL     1      -5.569  13.878  -2.341  1.00  0.00    +0.032 A 
ATOM      8  C   UNL     1      -5.225  13.877  -3.710  1.00  0.00    +0.051 A 
ATOM      9  C   UNL     1      -6.188  13.629  -4.698  1.00  0.00    +0.041 A 
ATOM     10  C   UNL     1      -6.922  13.637  -2.015  1.00  0.00    +0.012 A 
ATOM     11  C   UNL     1      -7.508  13.385  -4.338  1.00  0.00    +0.042 A 
ATOM     12  C   UNL     1      -7.881  13.391  -3.001  1.00  0.00    +0.021 A 
ATOM     13 Cl   UNL     1      -3.624  14.198  -4.283  1.00  0.00    -0.084 Cl
ATOM     14 Cl   UNL     1      -8.686  13.082  -5.555  1.00  0.00    -0.084 Cl
ENDBRANCH   3   7
BRANCH   3  15
ATOM     15  C   UNL     1      -4.215  15.652  -1.158  1.00  0.00    +0.194 C 
BRANCH  15  16
ATOM     16  N   UNL     1      -2.823  15.917  -0.837  1.00  0.00    -0.332 N 
ATOM     17  C   UNL     1      -1.806  16.107  -1.730  1.00  0.00    +0.107 A 
ATOM     18  C   UNL     1      -2.301  16.045   0.419  1.00  0.00    +0.199 A 
ATOM     19  C   UNL     1      -0.691  16.324  -0.956  1.00  0.00    +0.130 A 
ATOM     20  N   UNL     1      -1.008  16.274   0.377  1.00  0.00    -0.245 NA
ENDBRANCH  15  16
ENDBRANCH   3  15
ENDBRANCH   1   2
BRANCH   1  21
ATOM     21  O   UNL     1      -1.192  12.074  -1.214  1.00  0.00    -0.491 OA
BRANCH  21  22
ATOM     22  C   UNL     1      -0.056  12.701  -0.787  1.00  0.00    +0.119 A 
ATOM     23  C   UNL     1       0.852  13.018  -1.792  1.00  0.00    +0.048 A 
ATOM     24  C   UNL     1       0.258  13.034   0.525  1.00  0.00    +0.048 A 
ATOM     25  C   UNL     1       2.061  13.661  -1.491  1.00  0.00    +0.030 A 
ATOM     26  C   UNL     1       1.471  13.680   0.816  1.00  0.00    +0.030 A 
ATOM     27  C   UNL     1       2.403  14.015  -0.179  1.00  0.00    +0.037 A 
BRANCH  27  28
ATOM     28  N   UNL     1       3.600  14.647   0.131  1.00  0.00    -0.368 N 
ATOM     29  C   UNL     1       3.670  15.711   1.145  1.00  0.00    +0.138 C 
ATOM     30  C   UNL     1       4.880  14.079  -0.338  1.00  0.00    +0.138 C 
ATOM     31  C   UNL     1       4.916  16.594   0.945  1.00  0.00    +0.141 C 
ATOM     32  C   UNL     1       6.045  14.403   0.617  1.00  0.00    +0.141 C 
ATOM     33  N   UNL     1       6.169  15.834   0.897  1.00  0.00    -0.339 N 
ATOM     34  C   UNL     1       7.426  16.381   1.088  1.00  0.00    +0.219 C 
ATOM     35  O   UNL     1       8.453  15.703   1.086  1.00  0.00    -0.275 OA
ATOM     36  C   UNL     1       7.495  17.870   1.313  1.00  0.00    +0.114 C 
ENDBRANCH  27  28
ENDBRANCH  21  22
ENDBRANCH   1  21
TORSDOF 7
ENDMDL
MODEL 7
REMARK VINA RESULT:    -6.611      4.104      9.861
REMARK INTER + INTRA:         -10.126
REMARK INTER:                  -8.840
REMARK INTRA:                  -1.286
REMARK UNBOUND:                -0.810
REMARK SMILES CC(=O)N1CCN(c2ccc(OC[C@H]3CO[C@](Cn4ccnc4)(c4ccc(Cl)cc4Cl)O3)cc2)CC1
REMARK SMILES IDX 13 1 14 2 17 3 32 4 16 5 15 6 24 7 30 8 29 9 25 10 27 11
REMARK SMILES IDX 26 12 31 13 28 14 18 15 19 16 20 17 23 18 21 19 22 20 12 21
REMARK SMILES IDX 11 22 10 23 33 24 9 25 34 26 8 27 7 28 6 29 35 30 5 31 36 32
REMARK SMILES IDX 4 33 2 34 3 35 1 36
REMARK H PARENT
ROOT
ATOM      1  C   UNL     1       2.489  18.786   0.386  1.00  0.00    +0.264 C 
ENDROOT
BRANCH   1   2
ATOM      2  C   UNL     1       2.409  17.425  -0.298  1.00  0.00    +0.185 C 
ATOM      3  C   UNL     1       3.081  15.250  -0.114  1.00  0.00    +0.215 C 
ATOM      4  O   UNL     1       2.574  16.358   0.645  1.00  0.00    -0.335 OA
ATOM      5  O   UNL     1       3.611  15.759  -1.364  1.00  0.00    -0.342 OA
ATOM      6  C   UNL     1       3.537  17.184  -1.264  1.00  0.00    +0.200 C 
BRANCH   3   7
ATOM      7  C   UNL     1       1.936  14.271  -0.419  1.00  0.00    +0.032 A 
ATOM      8  C   UNL     1       2.031  13.245  -1.383  1.00  0.00    +0.051 A 
ATOM      9  C   UNL     1       0.958  12.377  -1.624  1.00  0.00    +0.041 A 
ATOM     10  C   UNL     1       0.710  14.394   0.274  1.00  0.00    +0.012 A 
ATOM     11  C   UNL     1      -0.229  12.522  -0.916  1.00  0.00    +0.042 A 
ATOM     12  C   UNL     1      -0.360  13.529   0.031  1.00  0.00    +0.021 A 
ATOM     13 Cl   UNL     1       3.443  12.984  -2.350  1.00  0.00    -0.084 Cl
ATOM     14 Cl   UNL     1      -1.544  11.455  -1.218  1.00  0.00    -0.084 Cl
ENDBRANCH   3   7
BRANCH   3  15
ATOM     15  C   UNL     1       4.211  14.522   0.649  1.00  0.00    +0.194 C 
BRANCH  15  16
ATOM     16  N   UNL     1       4.834  15.342   1.674  1.00  0.00    -0.332 N 
ATOM     17  C   UNL     1       4.606  15.271   3.020  1.00  0.00    +0.107 A 
ATOM     18  C   UNL     1       5.776  16.308   1.464  1.00  0.00    +0.199 A 
ATOM     19  C   UNL     1       5.421  16.232   3.569  1.00  0.00    +0.130 A 
ATOM     20  N   UNL     1       6.137  16.877   2.592  1.00  0.00    -0.245 NA
ENDBRANCH  15  16
ENDBRANCH   3  15
ENDBRANCH   1   2
BRANCH   1  21
ATOM     21  O   UNL     1       1.180  19.363   0.389  1.00  0.00    -0.491 OA
BRANCH  21  22
ATOM     22  C   UNL     1       0.208  18.694   1.079  1.00  0.00    +0.119 A 
ATOM     23  C   UNL     1       0.290  18.807   2.463  1.00  0.00    +0.048 A 
ATOM     24  C   UNL     1      -0.818  17.935   0.531  1.00  0.00    +0.048 A 
ATOM     25  C   UNL     1      -0.644  18.167   3.291  1.00  0.00    +0.030 A 
ATOM     26  C   UNL     1      -1.749  17.300   1.368  1.00  0.00    +0.030 A 
ATOM     27  C   UNL     1      -1.693  17.399   2.768  1.00  0.00    +0.037 A 
BRANCH  27  28
ATOM     28  N   UNL     1      -2.619  16.757   3.579  1.00  0.00    -0.368 N 
ATOM     29  C   UNL     1      -3.930  16.334   3.065  1.00  0.00    +0.138 C 
ATOM     30  C   UNL     1      -2.209  16.228   4.895  1.00  0.00    +0.138 C 
ATOM     31  C   UNL     1      -4.947  16.147   4.208  1.00  0.00    +0.141 C 
ATOM     32  C   UNL     1      -3.037  14.997   5.312  1.00  0.00    +0.141 C 
ATOM     33  N   UNL     1      -4.480  15.241   5.262  1.00  0.00    -0.339 N 
ATOM     34  C   UNL     1      -5.303  14.627   6.189  1.00  0.00    +0.219 C 
ATOM     35  O   UNL     1      -4.881  13.835   7.031  1.00  0.00    -0.275 OA
ATOM     36  C   UNL     1      -6.772  14.961   6.125  1.00  0.00    +0.114 C 
ENDBRANCH  27  28
ENDBRANCH  21  22
ENDBRANCH   1  21
TORSDOF 7
ENDMDL
MODEL 8
REMARK VINA RESULT:    -6.521      4.456     11.839
REMARK INTER + INTRA:          -9.999
REMARK INTER:                  -9.294
REMARK INTRA:                  -0.705
REMARK UNBOUND:                -0.810
REMARK SMILES CC(=O)N1CCN(c2ccc(OC[C@H]3CO[C@](Cn4ccnc4)(c4ccc(Cl)cc4Cl)O3)cc2)CC1
REMARK SMILES IDX 13 1 14 2 17 3 32 4 16 5 15 6 24 7 30 8 29 9 25 10 27 11
REMARK SMILES IDX 26 12 31 13 28 14 18 15 19 16 20 17 23 18 21 19 22 20 12 21
REMARK SMILES IDX 11 22 10 23 33 24 9 25 34 26 8 27 7 28 6 29 35 30 5 31 36 32
REMARK SMILES IDX 4 33 2 34 3 35 1 36
REMARK H PARENT
ROOT
ATOM      1  C   UNL     1      -0.296  14.679  -0.231  1.00  0.00    +0.264 C 
ENDROOT
BRANCH   1   2
ATOM      2  C   UNL     1       1.183  14.510   0.103  1.00  0.00    +0.185 C 
ATOM      3  C   UNL     1       3.239  14.186  -0.838  1.00  0.00    +0.215 C 
ATOM      4  O   UNL     1       2.014  14.919  -0.992  1.00  0.00    -0.335 OA
ATOM      5  O   UNL     1       2.991  13.066   0.048  1.00  0.00    -0.342 OA
ATOM      6  C   UNL     1       1.583  13.071   0.295  1.00  0.00    +0.200 C 
BRANCH   3   7
ATOM      7  C   UNL     1       4.305  15.096  -0.207  1.00  0.00    +0.032 A 
ATOM      8  C   UNL     1       4.494  16.443  -0.585  1.00  0.00    +0.051 A 
ATOM      9  C   UNL     1       5.481  17.233   0.020  1.00  0.00    +0.041 A 
ATOM     10  C   UNL     1       5.163  14.579   0.789  1.00  0.00    +0.012 A 
ATOM     11  C   UNL     1       6.300  16.692   1.004  1.00  0.00    +0.042 A 
ATOM     12  C   UNL     1       6.148  15.367   1.390  1.00  0.00    +0.021 A 
ATOM     13 Cl   UNL     1       3.560  17.219  -1.818  1.00  0.00    -0.084 Cl
ATOM     14 Cl   UNL     1       7.511  17.665   1.742  1.00  0.00    -0.084 Cl
ENDBRANCH   3   7
BRANCH   3  15
ATOM     15  C   UNL     1       3.740  13.648  -2.198  1.00  0.00    +0.194 C 
BRANCH  15  16
ATOM     16  N   UNL     1       4.368  12.340  -2.104  1.00  0.00    -0.332 N 
ATOM     17  C   UNL     1       3.787  11.139  -2.399  1.00  0.00    +0.107 A 
ATOM     18  C   UNL     1       5.657  12.097  -1.726  1.00  0.00    +0.199 A 
ATOM     19  C   UNL     1       4.766  10.204  -2.160  1.00  0.00    +0.130 A 
ATOM     20  N   UNL     1       5.921  10.809  -1.734  1.00  0.00    -0.245 NA
ENDBRANCH  15  16
ENDBRANCH   3  15
ENDBRANCH   1   2
BRANCH   1  21
ATOM     21  O   UNL     1      -1.062  14.224   0.889  1.00  0.00    -0.491 OA
BRANCH  21  22
ATOM     22  C   UNL     1      -1.364  15.146   1.850  1.00  0.00    +0.119 A 
ATOM     23  C   UNL     1      -1.943  14.624   3.002  1.00  0.00    +0.048 A 
ATOM     24  C   UNL     1      -1.150  16.517   1.774  1.00  0.00    +0.048 A 
ATOM     25  C   UNL     1      -2.305  15.462   4.067  1.00  0.00    +0.030 A 
ATOM     26  C   UNL     1      -1.514  17.348   2.846  1.00  0.00    +0.030 A 
ATOM     27  C   UNL     1      -2.097  16.847   4.022  1.00  0.00    +0.037 A 
BRANCH  27  28
ATOM     28  N   UNL     1      -2.457  17.686   5.067  1.00  0.00    -0.368 N 
ATOM     29  C   UNL     1      -3.092  17.166   6.288  1.00  0.00    +0.138 C 
ATOM     30  C   UNL     1      -1.959  19.076   5.107  1.00  0.00    +0.138 C 
ATOM     31  C   UNL     1      -3.858  18.274   7.036  1.00  0.00    +0.141 C 
ATOM     32  C   UNL     1      -1.813  19.601   6.547  1.00  0.00    +0.141 C 
ATOM     33  N   UNL     1      -3.039  19.453   7.334  1.00  0.00    -0.339 N 
ATOM     34  C   UNL     1      -3.355  20.409   8.282  1.00  0.00    +0.219 C 
ATOM     35  O   UNL     1      -2.619  21.362   8.537  1.00  0.00    -0.275 OA
ATOM     36  C   UNL     1      -4.659  20.234   9.019  1.00  0.00    +0.114 C 
ENDBRANCH  27  28
ENDBRANCH  21  22
ENDBRANCH   1  21
TORSDOF 7
ENDMDL
MODEL 9
REMARK VINA RESULT:    -6.454      6.268      9.605
REMARK INTER + INTRA:          -9.905
REMARK INTER:                  -8.729
REMARK INTRA:                  -1.176
REMARK UNBOUND:                -0.810
REMARK SMILES CC(=O)N1CCN(c2ccc(OC[C@H]3CO[C@](Cn4ccnc4)(c4ccc(Cl)cc4Cl)O3)cc2)CC1
REMARK SMILES IDX 13 1 14 2 17 3 32 4 16 5 15 6 24 7 30 8 29 9 25 10 27 11
REMARK SMILES IDX 26 12 31 13 28 14 18 15 19 16 20 17 23 18 21 19 22 20 12 21
REMARK SMILES IDX 11 22 10 23 33 24 9 25 34 26 8 27 7 28 6 29 35 30 5 31 36 32
REMARK SMILES IDX 4 33 2 34 3 35 1 36
REMARK H PARENT
ROOT
ATOM      1  C   UNL     1       0.500  16.789  -1.998  1.00  0.00    +0.264 C 
ENDROOT
BRANCH   1   2
ATOM      2  C   UNL     1       1.614  16.177  -1.155  1.00  0.00    +0.185 C 
ATOM      3  C   UNL     1       2.103  14.424   0.224  1.00  0.00    +0.215 C 
ATOM      4  O   UNL     1       1.432  14.764  -0.998  1.00  0.00    -0.335 OA
ATOM      5  O   UNL     1       2.298  15.639   0.990  1.00  0.00    -0.342 OA
ATOM      6  C   UNL     1       1.611  16.666   0.269  1.00  0.00    +0.200 C 
BRANCH   3   7
ATOM      7  C   UNL     1       3.475  13.809  -0.097  1.00  0.00    +0.032 A 
ATOM      8  C   UNL     1       3.656  12.771  -1.035  1.00  0.00    +0.051 A 
ATOM      9  C   UNL     1       4.929  12.243  -1.294  1.00  0.00    +0.041 A 
ATOM     10  C   UNL     1       4.624  14.277   0.579  1.00  0.00    +0.012 A 
ATOM     11  C   UNL     1       6.038  12.736  -0.617  1.00  0.00    +0.042 A 
ATOM     12  C   UNL     1       5.892  13.748   0.321  1.00  0.00    +0.021 A 
ATOM     13 Cl   UNL     1       2.351  12.053  -1.917  1.00  0.00    -0.084 Cl
ATOM     14 Cl   UNL     1       7.597  12.083  -0.936  1.00  0.00    -0.084 Cl
ENDBRANCH   3   7
BRANCH   3  15
ATOM     15  C   UNL     1       1.263  13.434   1.064  1.00  0.00    +0.194 C 
BRANCH  15  16
ATOM     16  N   UNL     1      -0.154  13.468   0.747  1.00  0.00    -0.332 N 
ATOM     17  C   UNL     1      -1.069  14.367   1.220  1.00  0.00    +0.107 A 
ATOM     18  C   UNL     1      -0.806  12.619  -0.100  1.00  0.00    +0.199 A 
ATOM     19  C   UNL     1      -2.260  13.997   0.641  1.00  0.00    +0.130 A 
ATOM     20  N   UNL     1      -2.087  12.904  -0.170  1.00  0.00    -0.245 NA
ENDBRANCH  15  16
ENDBRANCH   3  15
ENDBRANCH   1   2
BRANCH   1  21
ATOM     21  O   UNL     1       1.100  17.610  -3.004  1.00  0.00    -0.491 OA
BRANCH  21  22
ATOM     22  C   UNL     1       1.363  17.023  -4.209  1.00  0.00    +0.119 A 
ATOM     23  C   UNL     1       2.625  17.292  -4.730  1.00  0.00    +0.048 A 
ATOM     24  C   UNL     1       0.503  16.208  -4.935  1.00  0.00    +0.048 A 
ATOM     25  C   UNL     1       3.023  16.754  -5.962  1.00  0.00    +0.030 A 
ATOM     26  C   UNL     1       0.912  15.672  -6.167  1.00  0.00    +0.030 A 
ATOM     27  C   UNL     1       2.180  15.924  -6.714  1.00  0.00    +0.037 A 
BRANCH  27  28
ATOM     28  N   UNL     1       2.562  15.392  -7.938  1.00  0.00    -0.368 N 
ATOM     29  C   UNL     1       3.883  14.774  -8.130  1.00  0.00    +0.138 C 
ATOM     30  C   UNL     1       1.557  15.174  -8.997  1.00  0.00    +0.138 C 
ATOM     31  C   UNL     1       4.277  14.746  -9.619  1.00  0.00    +0.141 C 
ATOM     32  C   UNL     1       1.926  13.994  -9.916  1.00  0.00    +0.141 C 
ATOM     33  N   UNL     1       3.273  14.111 -10.478  1.00  0.00    -0.339 N 
ATOM     34  C   UNL     1       3.518  13.637 -11.754  1.00  0.00    +0.219 C 
ATOM     35  O   UNL     1       2.660  13.067 -12.428  1.00  0.00    -0.275 OA
ATOM     36  C   UNL     1       4.909  13.839 -12.301  1.00  0.00    +0.114 C 
ENDBRANCH  27  28
ENDBRANCH  21  22
ENDBRANCH   1  21
TORSDOF 7
ENDMDL
