MODEL 1
REMARK VINA RESULT:   -11.320      0.000      0.000
REMARK INTER + INTRA:         -16.079
REMARK INTER:                 -15.953
REMARK INTRA:                  -0.127
REMARK UNBOUND:                -0.127
REMARK SMILES CC(=O)N1CCN(c2ccc(OC[C@H]3CO[C@](Cn4ccnc4)(c4ccc(Cl)cc4Cl)O3)cc2)CC1
REMARK SMILES IDX 13 1 14 2 17 3 32 4 16 5 15 6 24 7 30 8 29 9 25 10 27 11
REMARK SMILES IDX 26 12 31 13 28 14 18 15 19 16 20 17 23 18 21 19 22 20 12 21
REMARK SMILES IDX 11 22 10 23 33 24 9 25 34 26 8 27 7 28 6 29 35 30 5 31 36 32
REMARK SMILES IDX 4 33 2 34 3 35 1 36
REMARK H PARENT
ROOT
ATOM      1  C   UNL     1      19.575  73.510  47.137  1.00  0.00    +0.264 C 
ENDROOT
BRANCH   1   2
ATOM      2  C   UNL     1      19.782  73.994  48.569  1.00  0.00    +0.185 C 
ATOM      3  C   UNL     1      21.296  74.995  49.955  1.00  0.00    +0.215 C 
ATOM      4  O   UNL     1      20.751  75.048  48.628  1.00  0.00    -0.335 OA
ATOM      5  O   UNL     1      20.989  73.696  50.521  1.00  0.00    -0.342 OA
ATOM      6  C   UNL     1      20.386  72.945  49.464  1.00  0.00    +0.200 C 
BRANCH   3   7
ATOM      7  C   UNL     1      20.645  76.085  50.821  1.00  0.00    +0.032 A 
ATOM      8  C   UNL     1      20.419  75.940  52.206  1.00  0.00    +0.051 A 
ATOM      9  C   UNL     1      19.821  76.964  52.953  1.00  0.00    +0.041 A 
ATOM     10  C   UNL     1      20.225  77.293  50.222  1.00  0.00    +0.012 A 
ATOM     11  C   UNL     1      19.431  78.144  52.331  1.00  0.00    +0.042 A 
ATOM     12  C   UNL     1      19.627  78.313  50.967  1.00  0.00    +0.021 A 
ATOM     13 Cl   UNL     1      20.831  74.508  53.087  1.00  0.00    -0.084 Cl
ATOM     14 Cl   UNL     1      18.695  79.396  53.252  1.00  0.00    -0.084 Cl
ENDBRANCH   3   7
BRANCH   3  15
ATOM     15  C   UNL     1      22.831  75.182  49.935  1.00  0.00    +0.194 C 
BRANCH  15  16
ATOM     16  N   UNL     1      23.458  74.665  48.730  1.00  0.00    -0.332 N 
ATOM     17  C   UNL     1      24.101  75.398  47.772  1.00  0.00    +0.107 A 
ATOM     18  C   UNL     1      23.531  73.351  48.366  1.00  0.00    +0.199 A 
ATOM     19  C   UNL     1      24.522  74.475  46.844  1.00  0.00    +0.130 A 
ATOM     20  N   UNL     1      24.154  73.208  47.218  1.00  0.00    -0.245 NA
ENDBRANCH  15  16
ENDBRANCH   3  15
ENDBRANCH   1   2
BRANCH   1  21
ATOM     21  O   UNL     1      20.576  72.529  46.848  1.00  0.00    -0.491 OA
BRANCH  21  22
ATOM     22  C   UNL     1      20.140  71.293  46.466  1.00  0.00    +0.119 A 
ATOM     23  C   UNL     1      19.620  70.511  47.492  1.00  0.00    +0.048 A 
ATOM     24  C   UNL     1      20.176  70.767  45.180  1.00  0.00    +0.048 A 
ATOM     25  C   UNL     1      19.139  69.219  47.238  1.00  0.00    +0.030 A 
ATOM     26  C   UNL     1      19.690  69.472  44.935  1.00  0.00    +0.030 A 
ATOM     27  C   UNL     1      19.156  68.663  45.951  1.00  0.00    +0.037 A 
BRANCH  27  28
ATOM     28  N   UNL     1      18.688  67.383  45.689  1.00  0.00    -0.368 N 
ATOM     29  C   UNL     1      17.904  66.631  46.681  1.00  0.00    +0.138 C 
ATOM     30  C   UNL     1      18.720  66.850  44.312  1.00  0.00    +0.138 C 
ATOM     31  C   UNL     1      17.957  65.116  46.406  1.00  0.00    +0.141 C 
ATOM     32  C   UNL     1      17.589  65.836  44.054  1.00  0.00    +0.141 C 
ATOM     33  N   UNL     1      17.559  64.756  45.042  1.00  0.00    -0.339 N 
ATOM     34  C   UNL     1      17.174  63.487  44.646  1.00  0.00    +0.219 C 
ATOM     35  O   UNL     1      16.802  63.232  43.501  1.00  0.00    -0.275 OA
ATOM     36  C   UNL     1      17.220  62.403  45.693  1.00  0.00    +0.114 C 
ENDBRANCH  27  28
ENDBRANCH  21  22
ENDBRANCH   1  21
TORSDOF 7
ENDMDL
MODEL 2
REMARK VINA RESULT:   -10.849      2.271      2.919
REMARK INTER + INTRA:         -15.415
REMARK INTER:                 -15.422
REMARK INTRA:                   0.007
REMARK UNBOUND:                -0.127
REMARK SMILES CC(=O)N1CCN(c2ccc(OC[C@H]3CO[C@](Cn4ccnc4)(c4ccc(Cl)cc4Cl)O3)cc2)CC1
REMARK SMILES IDX 13 1 14 2 17 3 32 4 16 5 15 6 24 7 30 8 29 9 25 10 27 11
REMARK SMILES IDX 26 12 31 13 28 14 18 15 19 16 20 17 23 18 21 19 22 20 12 21
REMARK SMILES IDX 11 22 10 23 33 24 9 25 34 26 8 27 7 28 6 29 35 30 5 31 36 32
REMARK SMILES IDX 4 33 2 34 3 35 1 36
REMARK H PARENT
ROOT
ATOM      1  C   UNL     1      20.666  71.102  47.687  1.00  0.00    +0.264 C 
ENDROOT
BRANCH   1   2
ATOM      2  C   UNL     1      21.148  72.103  48.732  1.00  0.00    +0.185 C 
ATOM      3  C   UNL     1      22.061  74.182  48.981  1.00  0.00    +0.215 C 
ATOM      4  O   UNL     1      21.077  73.446  48.237  1.00  0.00    -0.335 OA
ATOM      5  O   UNL     1      22.981  73.234  49.579  1.00  0.00    -0.342 OA
ATOM      6  C   UNL     1      22.609  71.954  49.062  1.00  0.00    +0.200 C 
BRANCH   3   7
ATOM      7  C   UNL     1      21.369  74.980  50.097  1.00  0.00    +0.032 A 
ATOM      8  C   UNL     1      21.335  74.557  51.443  1.00  0.00    +0.051 A 
ATOM      9  C   UNL     1      20.690  75.320  52.425  1.00  0.00    +0.041 A 
ATOM     10  C   UNL     1      20.711  76.190  49.784  1.00  0.00    +0.012 A 
ATOM     11  C   UNL     1      20.063  76.512  52.082  1.00  0.00    +0.042 A 
ATOM     12  C   UNL     1      20.067  76.950  50.764  1.00  0.00    +0.021 A 
ATOM     13 Cl   UNL     1      22.050  73.078  51.989  1.00  0.00    -0.084 Cl
ATOM     14 Cl   UNL     1      19.271  77.444  53.291  1.00  0.00    -0.084 Cl
ENDBRANCH   3   7
BRANCH   3  15
ATOM     15  C   UNL     1      22.855  75.137  48.061  1.00  0.00    +0.194 C 
BRANCH  15  16
ATOM     16  N   UNL     1      24.258  75.248  48.419  1.00  0.00    -0.332 N 
ATOM     17  C   UNL     1      25.319  74.776  47.698  1.00  0.00    +0.107 A 
ATOM     18  C   UNL     1      24.755  75.869  49.529  1.00  0.00    +0.199 A 
ATOM     19  C   UNL     1      26.429  75.121  48.434  1.00  0.00    +0.130 A 
ATOM     20  N   UNL     1      26.066  75.792  49.574  1.00  0.00    -0.245 NA
ENDBRANCH  15  16
ENDBRANCH   3  15
ENDBRANCH   1   2
BRANCH   1  21
ATOM     21  O   UNL     1      19.632  70.306  48.274  1.00  0.00    -0.491 OA
BRANCH  21  22
ATOM     22  C   UNL     1      18.793  69.650  47.419  1.00  0.00    +0.119 A 
ATOM     23  C   UNL     1      19.402  69.140  46.277  1.00  0.00    +0.048 A 
ATOM     24  C   UNL     1      17.427  69.459  47.587  1.00  0.00    +0.048 A 
ATOM     25  C   UNL     1      18.655  68.446  45.314  1.00  0.00    +0.030 A 
ATOM     26  C   UNL     1      16.688  68.761  46.618  1.00  0.00    +0.030 A 
ATOM     27  C   UNL     1      17.277  68.232  45.459  1.00  0.00    +0.037 A 
BRANCH  27  28
ATOM     28  N   UNL     1      16.528  67.552  44.509  1.00  0.00    -0.368 N 
ATOM     29  C   UNL     1      17.118  66.494  43.675  1.00  0.00    +0.138 C 
ATOM     30  C   UNL     1      15.056  67.672  44.502  1.00  0.00    +0.138 C 
ATOM     31  C   UNL     1      16.299  66.270  42.390  1.00  0.00    +0.141 C 
ATOM     32  C   UNL     1      14.371  66.405  43.955  1.00  0.00    +0.141 C 
ATOM     33  N   UNL     1      14.878  66.008  42.640  1.00  0.00    -0.339 N 
ATOM     34  C   UNL     1      14.014  65.430  41.728  1.00  0.00    +0.219 C 
ATOM     35  O   UNL     1      12.838  65.183  41.991  1.00  0.00    -0.275 OA
ATOM     36  C   UNL     1      14.579  65.097  40.370  1.00  0.00    +0.114 C 
ENDBRANCH  27  28
ENDBRANCH  21  22
ENDBRANCH   1  21
TORSDOF 7
ENDMDL
MODEL 3
REMARK VINA RESULT:   -10.703      4.580     11.784
REMARK INTER + INTRA:         -15.209
REMARK INTER:                 -14.892
REMARK INTRA:                  -0.317
REMARK UNBOUND:                -0.127
REMARK SMILES CC(=O)N1CCN(c2ccc(OC[C@H]3CO[C@](Cn4ccnc4)(c4ccc(Cl)cc4Cl)O3)cc2)CC1
REMARK SMILES IDX 13 1 14 2 17 3 32 4 16 5 15 6 24 7 30 8 29 9 25 10 27 11
REMARK SMILES IDX 26 12 31 13 28 14 18 15 19 16 20 17 23 18 21 19 22 20 12 21
REMARK SMILES IDX 11 22 10 23 33 24 9 25 34 26 8 27 7 28 6 29 35 30 5 31 36 32
REMARK SMILES IDX 4 33 2 34 3 35 1 36
REMARK H PARENT
ROOT
ATOM      1  C   UNL     1      17.262  68.068  46.607  1.00  0.00    +0.264 C 
ENDROOT
BRANCH   1   2
ATOM      2  C   UNL     1      17.456  67.798  45.118  1.00  0.00    +0.185 C 
ATOM      3  C   UNL     1      17.843  66.134  43.603  1.00  0.00    +0.215 C 
ATOM      4  O   UNL     1      17.088  66.454  44.781  1.00  0.00    -0.335 OA
ATOM      5  O   UNL     1      18.939  67.076  43.494  1.00  0.00    -0.342 OA
ATOM      6  C   UNL     1      18.898  67.857  44.692  1.00  0.00    +0.200 C 
BRANCH   3   7
ATOM      7  C   UNL     1      16.943  66.268  42.364  1.00  0.00    +0.032 A 
ATOM      8  C   UNL     1      17.428  66.645  41.093  1.00  0.00    +0.051 A 
ATOM      9  C   UNL     1      16.566  66.754  39.994  1.00  0.00    +0.041 A 
ATOM     10  C   UNL     1      15.556  66.027  42.481  1.00  0.00    +0.012 A 
ATOM     11  C   UNL     1      15.208  66.498  40.144  1.00  0.00    +0.042 A 
ATOM     12  C   UNL     1      14.697  66.138  41.384  1.00  0.00    +0.021 A 
ATOM     13 Cl   UNL     1      19.089  67.020  40.787  1.00  0.00    -0.084 Cl
ATOM     14 Cl   UNL     1      14.154  66.636  38.792  1.00  0.00    -0.084 Cl
ENDBRANCH   3   7
BRANCH   3  15
ATOM     15  C   UNL     1      18.421  64.702  43.684  1.00  0.00    +0.194 C 
BRANCH  15  16
ATOM     16  N   UNL     1      17.626  63.806  44.507  1.00  0.00    -0.332 N 
ATOM     17  C   UNL     1      16.448  63.211  44.152  1.00  0.00    +0.107 A 
ATOM     18  C   UNL     1      17.939  63.388  45.768  1.00  0.00    +0.199 A 
ATOM     19  C   UNL     1      16.086  62.463  45.247  1.00  0.00    +0.130 A 
ATOM     20  N   UNL     1      17.015  62.587  46.249  1.00  0.00    -0.245 NA
ENDBRANCH  15  16
ENDBRANCH   3  15
ENDBRANCH   1   2
BRANCH   1  21
ATOM     21  O   UNL     1      17.091  69.477  46.786  1.00  0.00    -0.491 OA
BRANCH  21  22
ATOM     22  C   UNL     1      18.199  70.198  47.129  1.00  0.00    +0.119 A 
ATOM     23  C   UNL     1      18.105  71.566  46.891  1.00  0.00    +0.048 A 
ATOM     24  C   UNL     1      19.374  69.696  47.674  1.00  0.00    +0.048 A 
ATOM     25  C   UNL     1      19.173  72.423  47.194  1.00  0.00    +0.030 A 
ATOM     26  C   UNL     1      20.437  70.562  47.976  1.00  0.00    +0.030 A 
ATOM     27  C   UNL     1      20.368  71.947  47.750  1.00  0.00    +0.037 A 
BRANCH  27  28
ATOM     28  N   UNL     1      21.434  72.785  48.049  1.00  0.00    -0.368 N 
ATOM     29  C   UNL     1      22.371  73.239  47.010  1.00  0.00    +0.138 C 
ATOM     30  C   UNL     1      21.493  73.471  49.355  1.00  0.00    +0.138 C 
ATOM     31  C   UNL     1      23.711  73.688  47.622  1.00  0.00    +0.141 C 
ATOM     32  C   UNL     1      22.233  74.819  49.272  1.00  0.00    +0.141 C 
ATOM     33  N   UNL     1      23.564  74.700  48.673  1.00  0.00    -0.339 N 
ATOM     34  C   UNL     1      24.584  75.519  49.121  1.00  0.00    +0.219 C 
ATOM     35  O   UNL     1      24.412  76.390  49.973  1.00  0.00    -0.275 OA
ATOM     36  C   UNL     1      25.947  75.310  48.509  1.00  0.00    +0.114 C 
ENDBRANCH  27  28
ENDBRANCH  21  22
ENDBRANCH   1  21
TORSDOF 7
ENDMDL
MODEL 4
REMARK VINA RESULT:   -10.538      3.147      4.786
REMARK INTER + INTRA:         -14.977
REMARK INTER:                 -14.926
REMARK INTRA:                  -0.050
REMARK UNBOUND:                -0.127
REMARK SMILES CC(=O)N1CCN(c2ccc(OC[C@H]3CO[C@](Cn4ccnc4)(c4ccc(Cl)cc4Cl)O3)cc2)CC1
REMARK SMILES IDX 13 1 14 2 17 3 32 4 16 5 15 6 24 7 30 8 29 9 25 10 27 11
REMARK SMILES IDX 26 12 31 13 28 14 18 15 19 16 20 17 23 18 21 19 22 20 12 21
REMARK SMILES IDX 11 22 10 23 33 24 9 25 34 26 8 27 7 28 6 29 35 30 5 31 36 32
REMARK SMILES IDX 4 33 2 34 3 35 1 36
REMARK H PARENT
ROOT
ATOM      1  C   UNL     1      19.541  71.034  48.479  1.00  0.00    +0.264 C 
ENDROOT
BRANCH   1   2
ATOM      2  C   UNL     1      20.220  72.340  48.079  1.00  0.00    +0.185 C 
ATOM      3  C   UNL     1      21.097  74.272  48.923  1.00  0.00    +0.215 C 
ATOM      4  O   UNL     1      21.027  72.856  49.145  1.00  0.00    -0.335 OA
ATOM      5  O   UNL     1      20.023  74.646  48.024  1.00  0.00    -0.342 OA
ATOM      6  C   UNL     1      19.244  73.461  47.838  1.00  0.00    +0.200 C 
BRANCH   3   7
ATOM      7  C   UNL     1      22.442  74.623  48.268  1.00  0.00    +0.032 A 
ATOM      8  C   UNL     1      22.634  74.665  46.870  1.00  0.00    +0.051 A 
ATOM      9  C   UNL     1      23.882  74.990  46.320  1.00  0.00    +0.041 A 
ATOM     10  C   UNL     1      23.563  74.902  49.082  1.00  0.00    +0.012 A 
ATOM     11  C   UNL     1      24.959  75.270  47.153  1.00  0.00    +0.042 A 
ATOM     12  C   UNL     1      24.807  75.224  48.532  1.00  0.00    +0.021 A 
ATOM     13 Cl   UNL     1      21.381  74.306  45.732  1.00  0.00    -0.084 Cl
ATOM     14 Cl   UNL     1      26.488  75.665  46.473  1.00  0.00    -0.084 Cl
ENDBRANCH   3   7
BRANCH   3  15
ATOM     15  C   UNL     1      20.934  75.052  50.248  1.00  0.00    +0.194 C 
BRANCH  15  16
ATOM     16  N   UNL     1      20.776  74.191  51.407  1.00  0.00    -0.332 N 
ATOM     17  C   UNL     1      19.594  73.823  51.988  1.00  0.00    +0.107 A 
ATOM     18  C   UNL     1      21.785  73.583  52.098  1.00  0.00    +0.199 A 
ATOM     19  C   UNL     1      19.954  73.011  53.038  1.00  0.00    +0.130 A 
ATOM     20  N   UNL     1      21.318  72.876  53.102  1.00  0.00    -0.245 NA
ENDBRANCH  15  16
ENDBRANCH   3  15
ENDBRANCH   1   2
BRANCH   1  21
ATOM     21  O   UNL     1      20.154  69.969  47.746  1.00  0.00    -0.491 OA
BRANCH  21  22
ATOM     22  C   UNL     1      19.393  69.355  46.792  1.00  0.00    +0.119 A 
ATOM     23  C   UNL     1      18.147  68.918  47.227  1.00  0.00    +0.048 A 
ATOM     24  C   UNL     1      19.751  69.136  45.467  1.00  0.00    +0.048 A 
ATOM     25  C   UNL     1      17.266  68.269  46.350  1.00  0.00    +0.030 A 
ATOM     26  C   UNL     1      18.861  68.487  44.595  1.00  0.00    +0.030 A 
ATOM     27  C   UNL     1      17.596  68.039  45.007  1.00  0.00    +0.037 A 
BRANCH  27  28
ATOM     28  N   UNL     1      16.734  67.392  44.131  1.00  0.00    -0.368 N 
ATOM     29  C   UNL     1      17.224  66.401  43.161  1.00  0.00    +0.138 C 
ATOM     30  C   UNL     1      15.274  67.468  44.338  1.00  0.00    +0.138 C 
ATOM     31  C   UNL     1      16.236  66.226  41.992  1.00  0.00    +0.141 C 
ATOM     32  C   UNL     1      14.547  66.214  43.817  1.00  0.00    +0.141 C 
ATOM     33  N   UNL     1      14.871  65.908  42.422  1.00  0.00    -0.339 N 
ATOM     34  C   UNL     1      13.900  65.358  41.606  1.00  0.00    +0.219 C 
ATOM     35  O   UNL     1      12.778  65.061  42.015  1.00  0.00    -0.275 OA
ATOM     36  C   UNL     1      14.274  65.119  40.164  1.00  0.00    +0.114 C 
ENDBRANCH  27  28
ENDBRANCH  21  22
ENDBRANCH   1  21
TORSDOF 7
ENDMDL
MODEL 5
REMARK VINA RESULT:   -10.453      4.960     11.641
REMARK INTER + INTRA:         -14.857
REMARK INTER:                 -14.907
REMARK INTRA:                   0.050
REMARK UNBOUND:                -0.127
REMARK SMILES CC(=O)N1CCN(c2ccc(OC[C@H]3CO[C@](Cn4ccnc4)(c4ccc(Cl)cc4Cl)O3)cc2)CC1
REMARK SMILES IDX 13 1 14 2 17 3 32 4 16 5 15 6 24 7 30 8 29 9 25 10 27 11
REMARK SMILES IDX 26 12 31 13 28 14 18 15 19 16 20 17 23 18 21 19 22 20 12 21
REMARK SMILES IDX 11 22 10 23 33 24 9 25 34 26 8 27 7 28 6 29 35 30 5 31 36 32
REMARK SMILES IDX 4 33 2 34 3 35 1 36
REMARK H PARENT
ROOT
ATOM      1  C   UNL     1      20.283  67.748  43.953  1.00  0.00    +0.264 C 
ENDROOT
BRANCH   1   2
ATOM      2  C   UNL     1      19.384  66.984  42.986  1.00  0.00    +0.185 C 
ATOM      3  C   UNL     1      17.203  66.476  42.538  1.00  0.00    +0.215 C 
ATOM      4  O   UNL     1      18.067  67.549  42.942  1.00  0.00    -0.335 OA
ATOM      5  O   UNL     1      17.899  65.224  42.758  1.00  0.00    -0.342 OA
ATOM      6  C   UNL     1      19.117  65.568  43.423  1.00  0.00    +0.200 C 
BRANCH   3   7
ATOM      7  C   UNL     1      16.880  66.614  41.042  1.00  0.00    +0.032 A 
ATOM      8  C   UNL     1      15.657  66.197  40.473  1.00  0.00    +0.051 A 
ATOM      9  C   UNL     1      15.410  66.344  39.101  1.00  0.00    +0.041 A 
ATOM     10  C   UNL     1      17.845  67.164  40.168  1.00  0.00    +0.012 A 
ATOM     11  C   UNL     1      16.379  66.900  38.274  1.00  0.00    +0.042 A 
ATOM     12  C   UNL     1      17.598  67.307  38.800  1.00  0.00    +0.021 A 
ATOM     13 Cl   UNL     1      14.388  65.464  41.392  1.00  0.00    -0.084 Cl
ATOM     14 Cl   UNL     1      16.072  67.075  36.591  1.00  0.00    -0.084 Cl
ENDBRANCH   3   7
BRANCH   3  15
ATOM     15  C   UNL     1      15.896  66.474  43.364  1.00  0.00    +0.194 C 
BRANCH  15  16
ATOM     16  N   UNL     1      16.073  66.951  44.725  1.00  0.00    -0.332 N 
ATOM     17  C   UNL     1      15.534  68.086  45.263  1.00  0.00    +0.107 A 
ATOM     18  C   UNL     1      16.792  66.328  45.704  1.00  0.00    +0.199 A 
ATOM     19  C   UNL     1      15.980  68.107  46.563  1.00  0.00    +0.130 A 
ATOM     20  N   UNL     1      16.767  67.015  46.824  1.00  0.00    -0.245 NA
ENDBRANCH  15  16
ENDBRANCH   3  15
ENDBRANCH   1   2
BRANCH   1  21
ATOM     21  O   UNL     1      19.571  67.921  45.182  1.00  0.00    -0.491 OA
BRANCH  21  22
ATOM     22  C   UNL     1      19.730  69.114  45.828  1.00  0.00    +0.119 A 
ATOM     23  C   UNL     1      19.386  69.101  47.176  1.00  0.00    +0.048 A 
ATOM     24  C   UNL     1      20.190  70.300  45.269  1.00  0.00    +0.048 A 
ATOM     25  C   UNL     1      19.500  70.260  47.957  1.00  0.00    +0.030 A 
ATOM     26  C   UNL     1      20.302  71.455  46.060  1.00  0.00    +0.030 A 
ATOM     27  C   UNL     1      19.966  71.470  47.423  1.00  0.00    +0.037 A 
BRANCH  27  28
ATOM     28  N   UNL     1      20.077  72.624  48.186  1.00  0.00    -0.368 N 
ATOM     29  C   UNL     1      20.516  72.581  49.589  1.00  0.00    +0.138 C 
ATOM     30  C   UNL     1      20.031  73.949  47.535  1.00  0.00    +0.138 C 
ATOM     31  C   UNL     1      20.066  73.839  50.356  1.00  0.00    +0.141 C 
ATOM     32  C   UNL     1      20.850  75.004  48.304  1.00  0.00    +0.141 C 
ATOM     33  N   UNL     1      20.477  75.093  49.717  1.00  0.00    -0.339 N 
ATOM     34  C   UNL     1      20.525  76.319  50.354  1.00  0.00    +0.219 C 
ATOM     35  O   UNL     1      20.921  77.343  49.797  1.00  0.00    -0.275 OA
ATOM     36  C   UNL     1      20.074  76.360  51.792  1.00  0.00    +0.114 C 
ENDBRANCH  27  28
ENDBRANCH  21  22
ENDBRANCH   1  21
TORSDOF 7
ENDMDL
MODEL 6
REMARK VINA RESULT:   -10.208      4.958     11.705
REMARK INTER + INTRA:         -14.512
REMARK INTER:                 -14.380
REMARK INTRA:                  -0.133
REMARK UNBOUND:                -0.127
REMARK SMILES CC(=O)N1CCN(c2ccc(OC[C@H]3CO[C@](Cn4ccnc4)(c4ccc(Cl)cc4Cl)O3)cc2)CC1
REMARK SMILES IDX 13 1 14 2 17 3 32 4 16 5 15 6 24 7 30 8 29 9 25 10 27 11
REMARK SMILES IDX 26 12 31 13 28 14 18 15 19 16 20 17 23 18 21 19 22 20 12 21
REMARK SMILES IDX 11 22 10 23 33 24 9 25 34 26 8 27 7 28 6 29 35 30 5 31 36 32
REMARK SMILES IDX 4 33 2 34 3 35 1 36
REMARK H PARENT
ROOT
ATOM      1  C   UNL     1      18.637  67.404  45.998  1.00  0.00    +0.264 C 
ENDROOT
BRANCH   1   2
ATOM      2  C   UNL     1      17.888  66.690  44.877  1.00  0.00    +0.185 C 
ATOM      3  C   UNL     1      15.859  66.557  43.837  1.00  0.00    +0.215 C 
ATOM      4  O   UNL     1      16.805  67.489  44.384  1.00  0.00    -0.335 OA
ATOM      5  O   UNL     1      16.154  65.242  44.371  1.00  0.00    -0.342 OA
ATOM      6  C   UNL     1      17.187  65.441  45.341  1.00  0.00    +0.200 C 
BRANCH   3   7
ATOM      7  C   UNL     1      16.004  66.519  42.307  1.00  0.00    +0.032 A 
ATOM      8  C   UNL     1      14.993  66.040  41.447  1.00  0.00    +0.051 A 
ATOM      9  C   UNL     1      15.173  66.025  40.057  1.00  0.00    +0.041 A 
ATOM     10  C   UNL     1      17.204  66.963  41.709  1.00  0.00    +0.012 A 
ATOM     11  C   UNL     1      16.364  66.480  39.503  1.00  0.00    +0.042 A 
ATOM     12  C   UNL     1      17.383  66.946  40.323  1.00  0.00    +0.021 A 
ATOM     13 Cl   UNL     1      13.481  65.419  42.016  1.00  0.00    -0.084 Cl
ATOM     14 Cl   UNL     1      16.580  66.458  37.797  1.00  0.00    -0.084 Cl
ENDBRANCH   3   7
BRANCH   3  15
ATOM     15  C   UNL     1      14.412  66.941  44.223  1.00  0.00    +0.194 C 
BRANCH  15  16
ATOM     16  N   UNL     1      14.343  67.993  45.222  1.00  0.00    -0.332 N 
ATOM     17  C   UNL     1      14.816  67.928  46.502  1.00  0.00    +0.107 A 
ATOM     18  C   UNL     1      13.811  69.237  45.039  1.00  0.00    +0.199 A 
ATOM     19  C   UNL     1      14.523  69.154  47.051  1.00  0.00    +0.130 A 
ATOM     20  N   UNL     1      13.891  69.957  46.136  1.00  0.00    -0.245 NA
ENDBRANCH  15  16
ENDBRANCH   3  15
ENDBRANCH   1   2
BRANCH   1  21
ATOM     21  O   UNL     1      18.235  68.777  46.000  1.00  0.00    -0.491 OA
BRANCH  21  22
ATOM     22  C   UNL     1      19.117  69.681  46.519  1.00  0.00    +0.119 A 
ATOM     23  C   UNL     1      19.937  70.304  45.583  1.00  0.00    +0.048 A 
ATOM     24  C   UNL     1      19.261  70.018  47.859  1.00  0.00    +0.048 A 
ATOM     25  C   UNL     1      20.890  71.252  45.981  1.00  0.00    +0.030 A 
ATOM     26  C   UNL     1      20.217  70.971  48.248  1.00  0.00    +0.030 A 
ATOM     27  C   UNL     1      21.054  71.617  47.325  1.00  0.00    +0.037 A 
BRANCH  27  28
ATOM     28  N   UNL     1      21.999  72.550  47.730  1.00  0.00    -0.368 N 
ATOM     29  C   UNL     1      22.926  73.172  46.773  1.00  0.00    +0.138 C 
ATOM     30  C   UNL     1      21.913  73.153  49.075  1.00  0.00    +0.138 C 
ATOM     31  C   UNL     1      24.174  73.731  47.485  1.00  0.00    +0.141 C 
ATOM     32  C   UNL     1      22.495  74.579  49.111  1.00  0.00    +0.141 C 
ATOM     33  N   UNL     1      23.858  74.651  48.582  1.00  0.00    -0.339 N 
ATOM     34  C   UNL     1      24.753  75.550  49.134  1.00  0.00    +0.219 C 
ATOM     35  O   UNL     1      24.438  76.339  50.024  1.00  0.00    -0.275 OA
ATOM     36  C   UNL     1      26.158  75.536  48.588  1.00  0.00    +0.114 C 
ENDBRANCH  27  28
ENDBRANCH  21  22
ENDBRANCH   1  21
TORSDOF 7
ENDMDL
MODEL 7
REMARK VINA RESULT:   -10.180      4.887     11.946
REMARK INTER + INTRA:         -14.473
REMARK INTER:                 -14.313
REMARK INTRA:                  -0.160
REMARK UNBOUND:                -0.127
REMARK SMILES CC(=O)N1CCN(c2ccc(OC[C@H]3CO[C@](Cn4ccnc4)(c4ccc(Cl)cc4Cl)O3)cc2)CC1
REMARK SMILES IDX 13 1 14 2 17 3 32 4 16 5 15 6 24 7 30 8 29 9 25 10 27 11
REMARK SMILES IDX 26 12 31 13 28 14 18 15 19 16 20 17 23 18 21 19 22 20 12 21
REMARK SMILES IDX 11 22 10 23 33 24 9 25 34 26 8 27 7 28 6 29 35 30 5 31 36 32
REMARK SMILES IDX 4 33 2 34 3 35 1 36
REMARK H PARENT
ROOT
ATOM      1  C   UNL     1      16.081  67.932  45.597  1.00  0.00    +0.264 C 
ENDROOT
BRANCH   1   2
ATOM      2  C   UNL     1      16.774  67.470  44.319  1.00  0.00    +0.185 C 
ATOM      3  C   UNL     1      16.776  65.818  42.742  1.00  0.00    +0.215 C 
ATOM      4  O   UNL     1      15.906  66.651  43.524  1.00  0.00    -0.335 OA
ATOM      5  O   UNL     1      18.088  65.825  43.357  1.00  0.00    -0.342 OA
ATOM      6  C   UNL     1      17.939  66.553  44.579  1.00  0.00    +0.200 C 
BRANCH   3   7
ATOM      7  C   UNL     1      16.887  66.388  41.318  1.00  0.00    +0.032 A 
ATOM      8  C   UNL     1      15.795  66.463  40.428  1.00  0.00    +0.051 A 
ATOM      9  C   UNL     1      15.948  66.991  39.138  1.00  0.00    +0.041 A 
ATOM     10  C   UNL     1      18.138  66.848  40.848  1.00  0.00    +0.012 A 
ATOM     11  C   UNL     1      17.192  67.445  38.714  1.00  0.00    +0.042 A 
ATOM     12  C   UNL     1      18.289  67.373  39.561  1.00  0.00    +0.021 A 
ATOM     13 Cl   UNL     1      14.208  65.903  40.828  1.00  0.00    -0.084 Cl
ATOM     14 Cl   UNL     1      17.374  68.090  37.130  1.00  0.00    -0.084 Cl
ENDBRANCH   3   7
BRANCH   3  15
ATOM     15  C   UNL     1      16.255  64.363  42.690  1.00  0.00    +0.194 C 
BRANCH  15  16
ATOM     16  N   UNL     1      16.595  63.588  43.871  1.00  0.00    -0.332 N 
ATOM     17  C   UNL     1      15.727  63.145  44.829  1.00  0.00    +0.107 A 
ATOM     18  C   UNL     1      17.843  63.149  44.208  1.00  0.00    +0.199 A 
ATOM     19  C   UNL     1      16.511  62.464  45.730  1.00  0.00    +0.130 A 
ATOM     20  N   UNL     1      17.825  62.480  45.339  1.00  0.00    -0.245 NA
ENDBRANCH  15  16
ENDBRANCH   3  15
ENDBRANCH   1   2
BRANCH   1  21
ATOM     21  O   UNL     1      17.013  67.818  46.677  1.00  0.00    -0.491 OA
BRANCH  21  22
ATOM     22  C   UNL     1      17.712  68.942  47.014  1.00  0.00    +0.119 A 
ATOM     23  C   UNL     1      19.075  68.747  47.215  1.00  0.00    +0.048 A 
ATOM     24  C   UNL     1      17.192  70.221  47.170  1.00  0.00    +0.048 A 
ATOM     25  C   UNL     1      19.909  69.817  47.569  1.00  0.00    +0.030 A 
ATOM     26  C   UNL     1      18.037  71.287  47.522  1.00  0.00    +0.030 A 
ATOM     27  C   UNL     1      19.416  71.119  47.728  1.00  0.00    +0.037 A 
BRANCH  27  28
ATOM     28  N   UNL     1      20.232  72.184  48.083  1.00  0.00    -0.368 N 
ATOM     29  C   UNL     1      21.485  72.466  47.367  1.00  0.00    +0.138 C 
ATOM     30  C   UNL     1      19.730  73.228  48.999  1.00  0.00    +0.138 C 
ATOM     31  C   UNL     1      22.445  73.310  48.228  1.00  0.00    +0.141 C 
ATOM     32  C   UNL     1      20.378  74.599  48.730  1.00  0.00    +0.141 C 
ATOM     33  N   UNL     1      21.842  74.546  48.735  1.00  0.00    -0.339 N 
ATOM     34  C   UNL     1      22.557  75.630  49.211  1.00  0.00    +0.219 C 
ATOM     35  O   UNL     1      22.017  76.670  49.586  1.00  0.00    -0.275 OA
ATOM     36  C   UNL     1      24.058  75.494  49.247  1.00  0.00    +0.114 C 
ENDBRANCH  27  28
ENDBRANCH  21  22
ENDBRANCH   1  21
TORSDOF 7
ENDMDL
MODEL 8
REMARK VINA RESULT:   -10.073      4.663     11.177
REMARK INTER + INTRA:         -14.321
REMARK INTER:                 -13.871
REMARK INTRA:                  -0.450
REMARK UNBOUND:                -0.127
REMARK SMILES CC(=O)N1CCN(c2ccc(OC[C@H]3CO[C@](Cn4ccnc4)(c4ccc(Cl)cc4Cl)O3)cc2)CC1
REMARK SMILES IDX 13 1 14 2 17 3 32 4 16 5 15 6 24 7 30 8 29 9 25 10 27 11
REMARK SMILES IDX 26 12 31 13 28 14 18 15 19 16 20 17 23 18 21 19 22 20 12 21
REMARK SMILES IDX 11 22 10 23 33 24 9 25 34 26 8 27 7 28 6 29 35 30 5 31 36 32
REMARK SMILES IDX 4 33 2 34 3 35 1 36
REMARK H PARENT
ROOT
ATOM      1  C   UNL     1      16.383  69.079  47.711  1.00  0.00    +0.264 C 
ENDROOT
BRANCH   1   2
ATOM      2  C   UNL     1      16.366  67.803  46.876  1.00  0.00    +0.185 C 
ATOM      3  C   UNL     1      17.651  66.504  45.506  1.00  0.00    +0.215 C 
ATOM      4  O   UNL     1      17.686  67.263  46.724  1.00  0.00    -0.335 OA
ATOM      5  O   UNL     1      16.499  66.930  44.736  1.00  0.00    -0.342 OA
ATOM      6  C   UNL     1      15.945  68.038  45.450  1.00  0.00    +0.200 C 
BRANCH   3   7
ATOM      7  C   UNL     1      17.508  65.010  45.837  1.00  0.00    +0.032 A 
ATOM      8  C   UNL     1      16.814  64.098  45.012  1.00  0.00    +0.051 A 
ATOM      9  C   UNL     1      16.711  62.744  45.358  1.00  0.00    +0.041 A 
ATOM     10  C   UNL     1      18.073  64.502  47.028  1.00  0.00    +0.012 A 
ATOM     11  C   UNL     1      17.290  62.278  46.533  1.00  0.00    +0.042 A 
ATOM     12  C   UNL     1      17.968  63.152  47.372  1.00  0.00    +0.021 A 
ATOM     13 Cl   UNL     1      16.026  64.562  43.543  1.00  0.00    -0.084 Cl
ATOM     14 Cl   UNL     1      17.158  60.616  46.953  1.00  0.00    -0.084 Cl
ENDBRANCH   3   7
BRANCH   3  15
ATOM     15  C   UNL     1      18.928  66.740  44.667  1.00  0.00    +0.194 C 
BRANCH  15  16
ATOM     16  N   UNL     1      18.664  66.887  43.245  1.00  0.00    -0.332 N 
ATOM     17  C   UNL     1      18.715  65.896  42.305  1.00  0.00    +0.107 A 
ATOM     18  C   UNL     1      18.295  68.040  42.614  1.00  0.00    +0.199 A 
ATOM     19  C   UNL     1      18.388  66.515  41.121  1.00  0.00    +0.130 A 
ATOM     20  N   UNL     1      18.139  67.849  41.323  1.00  0.00    -0.245 NA
ENDBRANCH  15  16
ENDBRANCH   3  15
ENDBRANCH   1   2
BRANCH   1  21
ATOM     21  O   UNL     1      16.800  70.159  46.870  1.00  0.00    -0.491 OA
BRANCH  21  22
ATOM     22  C   UNL     1      17.974  70.779  47.192  1.00  0.00    +0.119 A 
ATOM     23  C   UNL     1      18.015  72.140  46.905  1.00  0.00    +0.048 A 
ATOM     24  C   UNL     1      19.093  70.183  47.760  1.00  0.00    +0.048 A 
ATOM     25  C   UNL     1      19.162  72.897  47.183  1.00  0.00    +0.030 A 
ATOM     26  C   UNL     1      20.236  70.950  48.037  1.00  0.00    +0.030 A 
ATOM     27  C   UNL     1      20.304  72.326  47.762  1.00  0.00    +0.037 A 
BRANCH  27  28
ATOM     28  N   UNL     1      21.447  73.065  48.036  1.00  0.00    -0.368 N 
ATOM     29  C   UNL     1      22.381  73.462  46.971  1.00  0.00    +0.138 C 
ATOM     30  C   UNL     1      21.611  73.714  49.352  1.00  0.00    +0.138 C 
ATOM     31  C   UNL     1      23.776  73.784  47.540  1.00  0.00    +0.141 C 
ATOM     32  C   UNL     1      22.460  74.997  49.266  1.00  0.00    +0.141 C 
ATOM     33  N   UNL     1      23.753  74.780  48.615  1.00  0.00    -0.339 N 
ATOM     34  C   UNL     1      24.854  75.501  49.040  1.00  0.00    +0.219 C 
ATOM     35  O   UNL     1      24.787  76.364  49.915  1.00  0.00    -0.275 OA
ATOM     36  C   UNL     1      26.171  75.193  48.372  1.00  0.00    +0.114 C 
ENDBRANCH  27  28
ENDBRANCH  21  22
ENDBRANCH   1  21
TORSDOF 7
ENDMDL
MODEL 9
REMARK VINA RESULT:    -9.680      8.223     12.106
REMARK INTER + INTRA:         -13.768
REMARK INTER:                 -12.892
REMARK INTRA:                  -0.876
REMARK UNBOUND:                -0.127
REMARK SMILES CC(=O)N1CCN(c2ccc(OC[C@H]3CO[C@](Cn4ccnc4)(c4ccc(Cl)cc4Cl)O3)cc2)CC1
REMARK SMILES IDX 13 1 14 2 17 3 32 4 16 5 15 6 24 7 30 8 29 9 25 10 27 11
REMARK SMILES IDX 26 12 31 13 28 14 18 15 19 16 20 17 23 18 21 19 22 20 12 21
REMARK SMILES IDX 11 22 10 23 33 24 9 25 34 26 8 27 7 28 6 29 35 30 5 31 36 32
REMARK SMILES IDX 4 33 2 34 3 35 1 36
REMARK H PARENT
ROOT
ATOM      1  C   UNL     1      16.528  67.238  46.298  1.00  0.00    +0.264 C 
ENDROOT
BRANCH   1   2
ATOM      2  C   UNL     1      17.260  67.104  44.966  1.00  0.00    +0.185 C 
ATOM      3  C   UNL     1      17.850  65.597  43.354  1.00  0.00    +0.215 C 
ATOM      4  O   UNL     1      16.767  65.988  44.212  1.00  0.00    -0.335 OA
ATOM      5  O   UNL     1      19.075  66.164  43.881  1.00  0.00    -0.342 OA
ATOM      6  C   UNL     1      18.718  66.770  45.126  1.00  0.00    +0.200 C 
BRANCH   3   7
ATOM      7  C   UNL     1      17.609  66.150  41.940  1.00  0.00    +0.032 A 
ATOM      8  C   UNL     1      16.359  66.089  41.289  1.00  0.00    +0.051 A 
ATOM      9  C   UNL     1      16.190  66.608  39.998  1.00  0.00    +0.041 A 
ATOM     10  C   UNL     1      18.681  66.735  41.229  1.00  0.00    +0.012 A 
ATOM     11  C   UNL     1      17.265  67.186  39.333  1.00  0.00    +0.042 A 
ATOM     12  C   UNL     1      18.511  67.249  39.941  1.00  0.00    +0.021 A 
ATOM     13 Cl   UNL     1      14.956  65.367  41.999  1.00  0.00    -0.084 Cl
ATOM     14 Cl   UNL     1      17.053  67.818  37.747  1.00  0.00    -0.084 Cl
ENDBRANCH   3   7
BRANCH   3  15
ATOM     15  C   UNL     1      17.992  64.058  43.304  1.00  0.00    +0.194 C 
BRANCH  15  16
ATOM     16  N   UNL     1      17.415  63.389  44.458  1.00  0.00    -0.332 N 
ATOM     17  C   UNL     1      16.167  62.839  44.536  1.00  0.00    +0.107 A 
ATOM     18  C   UNL     1      18.039  63.175  45.654  1.00  0.00    +0.199 A 
ATOM     19  C   UNL     1      16.085  62.327  45.810  1.00  0.00    +0.130 A 
ATOM     20  N   UNL     1      17.250  62.550  46.498  1.00  0.00    -0.245 NA
ENDBRANCH  15  16
ENDBRANCH   3  15
ENDBRANCH   1   2
BRANCH   1  21
ATOM     21  O   UNL     1      16.308  68.630  46.548  1.00  0.00    -0.491 OA
BRANCH  21  22
ATOM     22  C   UNL     1      15.148  68.970  47.185  1.00  0.00    +0.119 A 
ATOM     23  C   UNL     1      14.394  69.949  46.547  1.00  0.00    +0.048 A 
ATOM     24  C   UNL     1      14.677  68.438  48.379  1.00  0.00    +0.048 A 
ATOM     25  C   UNL     1      13.182  70.393  47.095  1.00  0.00    +0.030 A 
ATOM     26  C   UNL     1      13.461  68.888  48.919  1.00  0.00    +0.030 A 
ATOM     27  C   UNL     1      12.678  69.871  48.295  1.00  0.00    +0.037 A 
BRANCH  27  28
ATOM     28  N   UNL     1      11.482  70.308  48.850  1.00  0.00    -0.368 N 
ATOM     29  C   UNL     1      10.184  69.947  48.261  1.00  0.00    +0.138 C 
ATOM     30  C   UNL     1      11.467  70.906  50.200  1.00  0.00    +0.138 C 
ATOM     31  C   UNL     1       9.080  70.933  48.692  1.00  0.00    +0.141 C 
ATOM     32  C   UNL     1      10.132  70.663  50.929  1.00  0.00    +0.141 C 
ATOM     33  N   UNL     1       8.971  71.089  50.146  1.00  0.00    -0.339 N 
ATOM     34  C   UNL     1       7.868  71.609  50.798  1.00  0.00    +0.219 C 
ATOM     35  O   UNL     1       7.794  71.682  52.024  1.00  0.00    -0.275 OA
ATOM     36  C   UNL     1       6.727  72.086  49.935  1.00  0.00    +0.114 C 
ENDBRANCH  27  28
ENDBRANCH  21  22
ENDBRANCH   1  21
TORSDOF 7
ENDMDL
