MODEL 1
REMARK VINA RESULT:   -10.175      0.000      0.000
REMARK INTER + INTRA:         -15.502
REMARK INTER:                 -14.338
REMARK INTRA:                  -1.163
REMARK UNBOUND:                -1.163
REMARK SMILES CC(=O)N1CCN(c2ccc(OC[C@H]3CO[C@](Cn4ccnc4)(c4ccc(Cl)cc4Cl)O3)cc2)CC1
REMARK SMILES IDX 13 1 14 2 17 3 32 4 16 5 15 6 24 7 30 8 29 9 25 10 27 11
REMARK SMILES IDX 26 12 31 13 28 14 18 15 19 16 20 17 23 18 21 19 22 20 12 21
REMARK SMILES IDX 11 22 10 23 33 24 9 25 34 26 8 27 7 28 6 29 35 30 5 31 36 32
REMARK SMILES IDX 4 33 2 34 3 35 1 36
REMARK H PARENT
ROOT
ATOM      1  C   UNL     1     -26.578  12.214 -23.097  1.00  0.00    +0.264 C 
ENDROOT
BRANCH   1   2
ATOM      2  C   UNL     1     -27.687  12.794 -22.225  1.00  0.00    +0.185 C 
ATOM      3  C   UNL     1     -29.284  14.425 -22.151  1.00  0.00    +0.215 C 
ATOM      4  O   UNL     1     -28.683  13.451 -23.019  1.00  0.00    -0.335 OA
ATOM      5  O   UNL     1     -28.393  14.645 -21.029  1.00  0.00    -0.342 OA
ATOM      6  C   UNL     1     -27.209  13.899 -21.321  1.00  0.00    +0.200 C 
BRANCH   3   7
ATOM      7  C   UNL     1     -30.625  13.888 -21.628  1.00  0.00    +0.032 A 
ATOM      8  C   UNL     1     -31.561  13.218 -22.444  1.00  0.00    +0.051 A 
ATOM      9  C   UNL     1     -32.773  12.747 -21.920  1.00  0.00    +0.041 A 
ATOM     10  C   UNL     1     -30.970  14.077 -20.271  1.00  0.00    +0.012 A 
ATOM     11  C   UNL     1     -33.073  12.942 -20.577  1.00  0.00    +0.042 A 
ATOM     12  C   UNL     1     -32.179  13.608 -19.750  1.00  0.00    +0.021 A 
ATOM     13 Cl   UNL     1     -31.316  12.943 -24.135  1.00  0.00    -0.084 Cl
ATOM     14 Cl   UNL     1     -34.562  12.363 -19.939  1.00  0.00    -0.084 Cl
ENDBRANCH   3   7
BRANCH   3  15
ATOM     15  C   UNL     1     -29.502  15.767 -22.887  1.00  0.00    +0.194 C 
BRANCH  15  16
ATOM     16  N   UNL     1     -28.641  15.935 -24.046  1.00  0.00    -0.332 N 
ATOM     17  C   UNL     1     -27.390  16.486 -24.053  1.00  0.00    +0.107 A 
ATOM     18  C   UNL     1     -28.930  15.546 -25.322  1.00  0.00    +0.199 A 
ATOM     19  C   UNL     1     -26.983  16.422 -25.365  1.00  0.00    +0.130 A 
ATOM     20  N   UNL     1     -27.951  15.844 -26.146  1.00  0.00    -0.245 NA
ENDBRANCH  15  16
ENDBRANCH   3  15
ENDBRANCH   1   2
BRANCH   1  21
ATOM     21  O   UNL     1     -27.124  11.940 -24.391  1.00  0.00    -0.491 OA
BRANCH  21  22
ATOM     22  C   UNL     1     -26.283  12.070 -25.460  1.00  0.00    +0.119 A 
ATOM     23  C   UNL     1     -25.374  13.119 -25.366  1.00  0.00    +0.048 A 
ATOM     24  C   UNL     1     -26.262  11.270 -26.595  1.00  0.00    +0.048 A 
ATOM     25  C   UNL     1     -24.454  13.367 -26.395  1.00  0.00    +0.030 A 
ATOM     26  C   UNL     1     -25.336  11.525 -27.620  1.00  0.00    +0.030 A 
ATOM     27  C   UNL     1     -24.405  12.574 -27.550  1.00  0.00    +0.037 A 
BRANCH  27  28
ATOM     28  N   UNL     1     -23.503  12.814 -28.577  1.00  0.00    -0.368 N 
ATOM     29  C   UNL     1     -23.379  11.899 -29.722  1.00  0.00    +0.138 C 
ATOM     30  C   UNL     1     -22.847  14.132 -28.694  1.00  0.00    +0.138 C 
ATOM     31  C   UNL     1     -22.016  12.060 -30.423  1.00  0.00    +0.141 C 
ATOM     32  C   UNL     1     -22.504  14.483 -30.154  1.00  0.00    +0.141 C 
ATOM     33  N   UNL     1     -21.723  13.440 -30.821  1.00  0.00    -0.339 N 
ATOM     34  C   UNL     1     -20.772  13.800 -31.759  1.00  0.00    +0.219 C 
ATOM     35  O   UNL     1     -20.586  14.967 -32.102  1.00  0.00    -0.275 OA
ATOM     36  C   UNL     1     -19.958  12.687 -32.369  1.00  0.00    +0.114 C 
ENDBRANCH  27  28
ENDBRANCH  21  22
ENDBRANCH   1  21
TORSDOF 7
ENDMDL
MODEL 2
REMARK VINA RESULT:    -9.934      3.707     10.254
REMARK INTER + INTRA:         -15.163
REMARK INTER:                 -14.621
REMARK INTRA:                  -0.542
REMARK UNBOUND:                -1.163
REMARK SMILES CC(=O)N1CCN(c2ccc(OC[C@H]3CO[C@](Cn4ccnc4)(c4ccc(Cl)cc4Cl)O3)cc2)CC1
REMARK SMILES IDX 13 1 14 2 17 3 32 4 16 5 15 6 24 7 30 8 29 9 25 10 27 11
REMARK SMILES IDX 26 12 31 13 28 14 18 15 19 16 20 17 23 18 21 19 22 20 12 21
REMARK SMILES IDX 11 22 10 23 33 24 9 25 34 26 8 27 7 28 6 29 35 30 5 31 36 32
REMARK SMILES IDX 4 33 2 34 3 35 1 36
REMARK H PARENT
ROOT
ATOM      1  C   UNL     1     -24.549  14.124 -23.188  1.00  0.00    +0.264 C 
ENDROOT
BRANCH   1   2
ATOM      2  C   UNL     1     -24.486  13.472 -24.565  1.00  0.00    +0.185 C 
ATOM      3  C   UNL     1     -25.426  13.512 -26.646  1.00  0.00    +0.215 C 
ATOM      4  O   UNL     1     -24.963  14.360 -25.584  1.00  0.00    -0.335 OA
ATOM      5  O   UNL     1     -25.625  12.180 -26.111  1.00  0.00    -0.342 OA
ATOM      6  C   UNL     1     -25.410  12.292 -24.701  1.00  0.00    +0.200 C 
BRANCH   3   7
ATOM      7  C   UNL     1     -24.362  13.453 -27.754  1.00  0.00    +0.032 A 
ATOM      8  C   UNL     1     -23.447  14.497 -28.004  1.00  0.00    +0.051 A 
ATOM      9  C   UNL     1     -22.495  14.395 -29.028  1.00  0.00    +0.041 A 
ATOM     10  C   UNL     1     -24.289  12.316 -28.590  1.00  0.00    +0.012 A 
ATOM     11  C   UNL     1     -22.445  13.256 -29.823  1.00  0.00    +0.042 A 
ATOM     12  C   UNL     1     -23.340  12.216 -29.611  1.00  0.00    +0.021 A 
ATOM     13 Cl   UNL     1     -23.429  15.976 -27.105  1.00  0.00    -0.084 Cl
ATOM     14 Cl   UNL     1     -21.277  13.137 -31.079  1.00  0.00    -0.084 Cl
ENDBRANCH   3   7
BRANCH   3  15
ATOM     15  C   UNL     1     -26.765  14.024 -27.225  1.00  0.00    +0.194 C 
BRANCH  15  16
ATOM     16  N   UNL     1     -26.685  15.376 -27.751  1.00  0.00    -0.332 N 
ATOM     17  C   UNL     1     -26.657  15.733 -29.070  1.00  0.00    +0.107 A 
ATOM     18  C   UNL     1     -26.651  16.523 -27.010  1.00  0.00    +0.199 A 
ATOM     19  C   UNL     1     -26.584  17.106 -29.064  1.00  0.00    +0.130 A 
ATOM     20  N   UNL     1     -26.571  17.585 -27.779  1.00  0.00    -0.245 NA
ENDBRANCH  15  16
ENDBRANCH   3  15
ENDBRANCH   1   2
BRANCH   1  21
ATOM     21  O   UNL     1     -25.594  15.101 -23.203  1.00  0.00    -0.491 OA
BRANCH  21  22
ATOM     22  C   UNL     1     -26.808  14.719 -22.708  1.00  0.00    +0.119 A 
ATOM     23  C   UNL     1     -27.890  14.977 -23.543  1.00  0.00    +0.048 A 
ATOM     24  C   UNL     1     -27.044  14.116 -21.478  1.00  0.00    +0.048 A 
ATOM     25  C   UNL     1     -29.194  14.637 -23.155  1.00  0.00    +0.030 A 
ATOM     26  C   UNL     1     -28.354  13.777 -21.099  1.00  0.00    +0.030 A 
ATOM     27  C   UNL     1     -29.464  14.023 -21.924  1.00  0.00    +0.037 A 
BRANCH  27  28
ATOM     28  N   UNL     1     -30.751  13.687 -21.527  1.00  0.00    -0.368 N 
ATOM     29  C   UNL     1     -31.473  12.557 -22.131  1.00  0.00    +0.138 C 
ATOM     30  C   UNL     1     -31.323  14.272 -20.298  1.00  0.00    +0.138 C 
ATOM     31  C   UNL     1     -32.995  12.699 -21.941  1.00  0.00    +0.141 C 
ATOM     32  C   UNL     1     -32.343  13.334 -19.627  1.00  0.00    +0.141 C 
ATOM     33  N   UNL     1     -33.395  12.889 -20.544  1.00  0.00    -0.339 N 
ATOM     34  C   UNL     1     -34.674  12.684 -20.059  1.00  0.00    +0.219 C 
ATOM     35  O   UNL     1     -34.962  12.809 -18.869  1.00  0.00    -0.275 OA
ATOM     36  C   UNL     1     -35.728  12.284 -21.061  1.00  0.00    +0.114 C 
ENDBRANCH  27  28
ENDBRANCH  21  22
ENDBRANCH   1  21
TORSDOF 7
ENDMDL
MODEL 3
REMARK VINA RESULT:    -9.586      3.728     10.491
REMARK INTER + INTRA:         -14.672
REMARK INTER:                 -13.283
REMARK INTRA:                  -1.390
REMARK UNBOUND:                -1.163
REMARK SMILES CC(=O)N1CCN(c2ccc(OC[C@H]3CO[C@](Cn4ccnc4)(c4ccc(Cl)cc4Cl)O3)cc2)CC1
REMARK SMILES IDX 13 1 14 2 17 3 32 4 16 5 15 6 24 7 30 8 29 9 25 10 27 11
REMARK SMILES IDX 26 12 31 13 28 14 18 15 19 16 20 17 23 18 21 19 22 20 12 21
REMARK SMILES IDX 11 22 10 23 33 24 9 25 34 26 8 27 7 28 6 29 35 30 5 31 36 32
REMARK SMILES IDX 4 33 2 34 3 35 1 36
REMARK H PARENT
ROOT
ATOM      1  C   UNL     1     -27.719  14.948 -28.708  1.00  0.00    +0.264 C 
ENDROOT
BRANCH   1   2
ATOM      2  C   UNL     1     -26.221  14.994 -28.992  1.00  0.00    +0.185 C 
ATOM      3  C   UNL     1     -24.181  14.472 -28.108  1.00  0.00    +0.215 C 
ATOM      4  O   UNL     1     -25.521  13.980 -28.259  1.00  0.00    -0.335 OA
ATOM      5  O   UNL     1     -24.191  15.902 -28.349  1.00  0.00    -0.342 OA
ATOM      6  C   UNL     1     -25.568  16.259 -28.503  1.00  0.00    +0.200 C 
BRANCH   3   7
ATOM      7  C   UNL     1     -23.266  13.797 -29.142  1.00  0.00    +0.032 A 
ATOM      8  C   UNL     1     -23.230  12.401 -29.348  1.00  0.00    +0.051 A 
ATOM      9  C   UNL     1     -22.378  11.833 -30.304  1.00  0.00    +0.041 A 
ATOM     10  C   UNL     1     -22.395  14.588 -29.924  1.00  0.00    +0.012 A 
ATOM     11  C   UNL     1     -21.542  12.644 -31.063  1.00  0.00    +0.042 A 
ATOM     12  C   UNL     1     -21.544  14.019 -30.876  1.00  0.00    +0.021 A 
ATOM     13 Cl   UNL     1     -24.198  11.286 -28.445  1.00  0.00    -0.084 Cl
ATOM     14 Cl   UNL     1     -20.496  11.941 -32.233  1.00  0.00    -0.084 Cl
ENDBRANCH   3   7
BRANCH   3  15
ATOM     15  C   UNL     1     -23.650  14.210 -26.679  1.00  0.00    +0.194 C 
BRANCH  15  16
ATOM     16  N   UNL     1     -24.702  14.118 -25.681  1.00  0.00    -0.332 N 
ATOM     17  C   UNL     1     -25.107  12.987 -25.032  1.00  0.00    +0.107 A 
ATOM     18  C   UNL     1     -25.448  15.159 -25.207  1.00  0.00    +0.199 A 
ATOM     19  C   UNL     1     -26.115  13.401 -24.193  1.00  0.00    +0.130 A 
ATOM     20  N   UNL     1     -26.324  14.751 -24.317  1.00  0.00    -0.245 NA
ENDBRANCH  15  16
ENDBRANCH   3  15
ENDBRANCH   1   2
BRANCH   1  21
ATOM     21  O   UNL     1     -28.020  13.688 -28.099  1.00  0.00    -0.491 OA
BRANCH  21  22
ATOM     22  C   UNL     1     -28.748  13.715 -26.944  1.00  0.00    +0.119 A 
ATOM     23  C   UNL     1     -28.814  12.504 -26.264  1.00  0.00    +0.048 A 
ATOM     24  C   UNL     1     -29.408  14.816 -26.411  1.00  0.00    +0.048 A 
ATOM     25  C   UNL     1     -29.532  12.392 -25.064  1.00  0.00    +0.030 A 
ATOM     26  C   UNL     1     -30.122  14.694 -25.208  1.00  0.00    +0.030 A 
ATOM     27  C   UNL     1     -30.203  13.485 -24.499  1.00  0.00    +0.037 A 
BRANCH  27  28
ATOM     28  N   UNL     1     -30.921  13.384 -23.315  1.00  0.00    -0.368 N 
ATOM     29  C   UNL     1     -32.020  12.418 -23.162  1.00  0.00    +0.138 C 
ATOM     30  C   UNL     1     -30.423  14.038 -22.088  1.00  0.00    +0.138 C 
ATOM     31  C   UNL     1     -32.976  12.833 -22.027  1.00  0.00    +0.141 C 
ATOM     32  C   UNL     1     -30.854  13.288 -20.813  1.00  0.00    +0.141 C 
ATOM     33  N   UNL     1     -32.299  13.064 -20.747  1.00  0.00    -0.339 N 
ATOM     34  C   UNL     1     -32.932  13.087 -19.518  1.00  0.00    +0.219 C 
ATOM     35  O   UNL     1     -32.323  13.238 -18.459  1.00  0.00    -0.275 OA
ATOM     36  C   UNL     1     -34.430  12.909 -19.518  1.00  0.00    +0.114 C 
ENDBRANCH  27  28
ENDBRANCH  21  22
ENDBRANCH   1  21
TORSDOF 7
ENDMDL
MODEL 4
REMARK VINA RESULT:    -9.558      2.217      3.626
REMARK INTER + INTRA:         -14.632
REMARK INTER:                 -13.609
REMARK INTRA:                  -1.023
REMARK UNBOUND:                -1.163
REMARK SMILES CC(=O)N1CCN(c2ccc(OC[C@H]3CO[C@](Cn4ccnc4)(c4ccc(Cl)cc4Cl)O3)cc2)CC1
REMARK SMILES IDX 13 1 14 2 17 3 32 4 16 5 15 6 24 7 30 8 29 9 25 10 27 11
REMARK SMILES IDX 26 12 31 13 28 14 18 15 19 16 20 17 23 18 21 19 22 20 12 21
REMARK SMILES IDX 11 22 10 23 33 24 9 25 34 26 8 27 7 28 6 29 35 30 5 31 36 32
REMARK SMILES IDX 4 33 2 34 3 35 1 36
REMARK H PARENT
ROOT
ATOM      1  C   UNL     1     -28.876  16.834 -24.343  1.00  0.00    +0.264 C 
ENDROOT
BRANCH   1   2
ATOM      2  C   UNL     1     -29.671  15.637 -23.829  1.00  0.00    +0.185 C 
ATOM      3  C   UNL     1     -29.529  13.796 -22.486  1.00  0.00    +0.215 C 
ATOM      4  O   UNL     1     -29.169  15.183 -22.566  1.00  0.00    -0.335 OA
ATOM      5  O   UNL     1     -29.840  13.329 -23.823  1.00  0.00    -0.342 OA
ATOM      6  C   UNL     1     -29.523  14.416 -24.697  1.00  0.00    +0.200 C 
BRANCH   3   7
ATOM      7  C   UNL     1     -30.774  13.639 -21.599  1.00  0.00    +0.032 A 
ATOM      8  C   UNL     1     -30.862  14.162 -20.291  1.00  0.00    +0.051 A 
ATOM      9  C   UNL     1     -32.020  13.992 -19.520  1.00  0.00    +0.041 A 
ATOM     10  C   UNL     1     -31.892  12.925 -22.085  1.00  0.00    +0.012 A 
ATOM     11  C   UNL     1     -33.105  13.293 -20.037  1.00  0.00    +0.042 A 
ATOM     12  C   UNL     1     -33.045  12.755 -21.315  1.00  0.00    +0.021 A 
ATOM     13 Cl   UNL     1     -29.569  15.022 -19.527  1.00  0.00    -0.084 Cl
ATOM     14 Cl   UNL     1     -34.523  13.085 -19.086  1.00  0.00    -0.084 Cl
ENDBRANCH   3   7
BRANCH   3  15
ATOM     15  C   UNL     1     -28.365  12.950 -21.919  1.00  0.00    +0.194 C 
BRANCH  15  16
ATOM     16  N   UNL     1     -28.214  11.664 -22.578  1.00  0.00    -0.332 N 
ATOM     17  C   UNL     1     -27.276  11.338 -23.517  1.00  0.00    +0.107 A 
ATOM     18  C   UNL     1     -28.974  10.553 -22.347  1.00  0.00    +0.199 A 
ATOM     19  C   UNL     1     -27.532  10.024 -23.832  1.00  0.00    +0.130 A 
ATOM     20  N   UNL     1     -28.594   9.549 -23.106  1.00  0.00    -0.245 NA
ENDBRANCH  15  16
ENDBRANCH   3  15
ENDBRANCH   1   2
BRANCH   1  21
ATOM     21  O   UNL     1     -27.509  16.660 -23.960  1.00  0.00    -0.491 OA
BRANCH  21  22
ATOM     22  C   UNL     1     -26.701  15.986 -24.830  1.00  0.00    +0.119 A 
ATOM     23  C   UNL     1     -26.750  16.437 -26.145  1.00  0.00    +0.048 A 
ATOM     24  C   UNL     1     -25.864  14.920 -24.522  1.00  0.00    +0.048 A 
ATOM     25  C   UNL     1     -25.972  15.830 -27.142  1.00  0.00    +0.030 A 
ATOM     26  C   UNL     1     -25.087  14.321 -25.527  1.00  0.00    +0.030 A 
ATOM     27  C   UNL     1     -25.114  14.758 -26.861  1.00  0.00    +0.037 A 
BRANCH  27  28
ATOM     28  N   UNL     1     -24.344  14.147 -27.841  1.00  0.00    -0.368 N 
ATOM     29  C   UNL     1     -22.925  14.484 -28.027  1.00  0.00    +0.138 C 
ATOM     30  C   UNL     1     -24.847  12.944 -28.534  1.00  0.00    +0.138 C 
ATOM     31  C   UNL     1     -22.440  14.109 -29.441  1.00  0.00    +0.141 C 
ATOM     32  C   UNL     1     -23.706  12.016 -28.992  1.00  0.00    +0.141 C 
ATOM     33  N   UNL     1     -22.697  12.710 -29.795  1.00  0.00    -0.339 N 
ATOM     34  C   UNL     1     -22.063  12.031 -30.820  1.00  0.00    +0.219 C 
ATOM     35  O   UNL     1     -22.271  10.842 -31.058  1.00  0.00    -0.275 OA
ATOM     36  C   UNL     1     -21.077  12.814 -31.650  1.00  0.00    +0.114 C 
ENDBRANCH  27  28
ENDBRANCH  21  22
ENDBRANCH   1  21
TORSDOF 7
ENDMDL
MODEL 5
REMARK VINA RESULT:    -9.534      3.738     10.574
REMARK INTER + INTRA:         -14.599
REMARK INTER:                 -13.946
REMARK INTRA:                  -0.653
REMARK UNBOUND:                -1.163
REMARK SMILES CC(=O)N1CCN(c2ccc(OC[C@H]3CO[C@](Cn4ccnc4)(c4ccc(Cl)cc4Cl)O3)cc2)CC1
REMARK SMILES IDX 13 1 14 2 17 3 32 4 16 5 15 6 24 7 30 8 29 9 25 10 27 11
REMARK SMILES IDX 26 12 31 13 28 14 18 15 19 16 20 17 23 18 21 19 22 20 12 21
REMARK SMILES IDX 11 22 10 23 33 24 9 25 34 26 8 27 7 28 6 29 35 30 5 31 36 32
REMARK SMILES IDX 4 33 2 34 3 35 1 36
REMARK H PARENT
ROOT
ATOM      1  C   UNL     1     -24.786  14.580 -25.128  1.00  0.00    +0.264 C 
ENDROOT
BRANCH   1   2
ATOM      2  C   UNL     1     -24.352  13.709 -26.303  1.00  0.00    +0.185 C 
ATOM      3  C   UNL     1     -24.822  13.223 -28.484  1.00  0.00    +0.215 C 
ATOM      4  O   UNL     1     -24.704  14.312 -27.555  1.00  0.00    -0.335 OA
ATOM      5  O   UNL     1     -24.969  11.994 -27.729  1.00  0.00    -0.342 OA
ATOM      6  C   UNL     1     -25.077  12.392 -26.359  1.00  0.00    +0.200 C 
BRANCH   3   7
ATOM      7  C   UNL     1     -23.547  13.136 -29.337  1.00  0.00    +0.032 A 
ATOM      8  C   UNL     1     -22.904  11.919 -29.644  1.00  0.00    +0.051 A 
ATOM      9  C   UNL     1     -21.742  11.892 -30.428  1.00  0.00    +0.041 A 
ATOM     10  C   UNL     1     -22.960  14.321 -29.836  1.00  0.00    +0.012 A 
ATOM     11  C   UNL     1     -21.199  13.077 -30.910  1.00  0.00    +0.042 A 
ATOM     12  C   UNL     1     -21.801  14.293 -30.615  1.00  0.00    +0.021 A 
ATOM     13 Cl   UNL     1     -23.464  10.383 -29.077  1.00  0.00    -0.084 Cl
ATOM     14 Cl   UNL     1     -19.772  13.039 -31.869  1.00  0.00    -0.084 Cl
ENDBRANCH   3   7
BRANCH   3  15
ATOM     15  C   UNL     1     -26.059  13.401 -29.395  1.00  0.00    +0.194 C 
BRANCH  15  16
ATOM     16  N   UNL     1     -27.163  14.084 -28.741  1.00  0.00    -0.332 N 
ATOM     17  C   UNL     1     -28.181  13.496 -28.045  1.00  0.00    +0.107 A 
ATOM     18  C   UNL     1     -27.353  15.435 -28.693  1.00  0.00    +0.199 A 
ATOM     19  C   UNL     1     -28.967  14.540 -27.618  1.00  0.00    +0.130 A 
ATOM     20  N   UNL     1     -28.448  15.739 -28.034  1.00  0.00    -0.245 NA
ENDBRANCH  15  16
ENDBRANCH   3  15
ENDBRANCH   1   2
BRANCH   1  21
ATOM     21  O   UNL     1     -25.975  15.280 -25.506  1.00  0.00    -0.491 OA
BRANCH  21  22
ATOM     22  C   UNL     1     -27.087  15.074 -24.740  1.00  0.00    +0.119 A 
ATOM     23  C   UNL     1     -27.284  13.757 -24.336  1.00  0.00    +0.048 A 
ATOM     24  C   UNL     1     -28.009  16.036 -24.347  1.00  0.00    +0.048 A 
ATOM     25  C   UNL     1     -28.389  13.406 -23.548  1.00  0.00    +0.030 A 
ATOM     26  C   UNL     1     -29.111  15.675 -23.556  1.00  0.00    +0.030 A 
ATOM     27  C   UNL     1     -29.332  14.355 -23.130  1.00  0.00    +0.037 A 
BRANCH  27  28
ATOM     28  N   UNL     1     -30.433  14.017 -22.355  1.00  0.00    -0.368 N 
ATOM     29  C   UNL     1     -31.125  12.730 -22.520  1.00  0.00    +0.138 C 
ATOM     30  C   UNL     1     -30.766  14.812 -21.155  1.00  0.00    +0.138 C 
ATOM     31  C   UNL     1     -32.563  12.792 -21.970  1.00  0.00    +0.141 C 
ATOM     32  C   UNL     1     -31.466  13.967 -20.073  1.00  0.00    +0.141 C 
ATOM     33  N   UNL     1     -32.639  13.253 -20.581  1.00  0.00    -0.339 N 
ATOM     34  C   UNL     1     -33.727  13.062 -19.749  1.00  0.00    +0.219 C 
ATOM     35  O   UNL     1     -33.736  13.422 -18.572  1.00  0.00    -0.275 OA
ATOM     36  C   UNL     1     -34.929  12.372 -20.345  1.00  0.00    +0.114 C 
ENDBRANCH  27  28
ENDBRANCH  21  22
ENDBRANCH   1  21
TORSDOF 7
ENDMDL
MODEL 6
REMARK VINA RESULT:    -9.170      2.534      4.873
REMARK INTER + INTRA:         -14.085
REMARK INTER:                 -13.229
REMARK INTRA:                  -0.856
REMARK UNBOUND:                -1.163
REMARK SMILES CC(=O)N1CCN(c2ccc(OC[C@H]3CO[C@](Cn4ccnc4)(c4ccc(Cl)cc4Cl)O3)cc2)CC1
REMARK SMILES IDX 13 1 14 2 17 3 32 4 16 5 15 6 24 7 30 8 29 9 25 10 27 11
REMARK SMILES IDX 26 12 31 13 28 14 18 15 19 16 20 17 23 18 21 19 22 20 12 21
REMARK SMILES IDX 11 22 10 23 33 24 9 25 34 26 8 27 7 28 6 29 35 30 5 31 36 32
REMARK SMILES IDX 4 33 2 34 3 35 1 36
REMARK H PARENT
ROOT
ATOM      1  C   UNL     1     -27.773  16.517 -23.845  1.00  0.00    +0.264 C 
ENDROOT
BRANCH   1   2
ATOM      2  C   UNL     1     -27.388  15.062 -23.598  1.00  0.00    +0.185 C 
ATOM      3  C   UNL     1     -28.258  12.991 -23.187  1.00  0.00    +0.215 C 
ATOM      4  O   UNL     1     -28.445  14.172 -23.982  1.00  0.00    -0.335 OA
ATOM      5  O   UNL     1     -27.400  13.326 -22.068  1.00  0.00    -0.342 OA
ATOM      6  C   UNL     1     -27.205  14.741 -22.139  1.00  0.00    +0.200 C 
BRANCH   3   7
ATOM      7  C   UNL     1     -27.574  11.906 -24.034  1.00  0.00    +0.032 A 
ATOM      8  C   UNL     1     -27.310  10.604 -23.557  1.00  0.00    +0.051 A 
ATOM      9  C   UNL     1     -26.683   9.649 -24.369  1.00  0.00    +0.041 A 
ATOM     10  C   UNL     1     -27.162  12.207 -25.352  1.00  0.00    +0.012 A 
ATOM     11  C   UNL     1     -26.302   9.978 -25.665  1.00  0.00    +0.042 A 
ATOM     12  C   UNL     1     -26.535  11.254 -26.160  1.00  0.00    +0.021 A 
ATOM     13 Cl   UNL     1     -27.708  10.085 -21.955  1.00  0.00    -0.084 Cl
ATOM     14 Cl   UNL     1     -25.530   8.803 -26.656  1.00  0.00    -0.084 Cl
ENDBRANCH   3   7
BRANCH   3  15
ATOM     15  C   UNL     1     -29.607  12.466 -22.644  1.00  0.00    +0.194 C 
BRANCH  15  16
ATOM     16  N   UNL     1     -30.082  13.195 -21.481  1.00  0.00    -0.332 N 
ATOM     17  C   UNL     1     -30.730  14.398 -21.486  1.00  0.00    +0.107 A 
ATOM     18  C   UNL     1     -29.981  12.785 -20.182  1.00  0.00    +0.199 A 
ATOM     19  C   UNL     1     -30.977  14.674 -20.162  1.00  0.00    +0.130 A 
ATOM     20  N   UNL     1     -30.499  13.669 -19.360  1.00  0.00    -0.245 NA
ENDBRANCH  15  16
ENDBRANCH   3  15
ENDBRANCH   1   2
BRANCH   1  21
ATOM     21  O   UNL     1     -27.885  16.717 -25.258  1.00  0.00    -0.491 OA
BRANCH  21  22
ATOM     22  C   UNL     1     -26.917  16.157 -26.042  1.00  0.00    +0.119 A 
ATOM     23  C   UNL     1     -27.385  15.520 -27.187  1.00  0.00    +0.048 A 
ATOM     24  C   UNL     1     -25.549  16.169 -25.798  1.00  0.00    +0.048 A 
ATOM     25  C   UNL     1     -26.497  14.902 -28.078  1.00  0.00    +0.030 A 
ATOM     26  C   UNL     1     -24.668  15.548 -26.698  1.00  0.00    +0.030 A 
ATOM     27  C   UNL     1     -25.112  14.902 -27.863  1.00  0.00    +0.037 A 
BRANCH  27  28
ATOM     28  N   UNL     1     -24.224  14.288 -28.735  1.00  0.00    -0.368 N 
ATOM     29  C   UNL     1     -22.791  14.618 -28.736  1.00  0.00    +0.138 C 
ATOM     30  C   UNL     1     -24.639  13.087 -29.489  1.00  0.00    +0.138 C 
ATOM     31  C   UNL     1     -22.130  14.242 -30.075  1.00  0.00    +0.141 C 
ATOM     32  C   UNL     1     -23.452  12.154 -29.796  1.00  0.00    +0.141 C 
ATOM     33  N   UNL     1     -22.344  12.844 -30.461  1.00  0.00    -0.339 N 
ATOM     34  C   UNL     1     -21.586  12.162 -31.396  1.00  0.00    +0.219 C 
ATOM     35  O   UNL     1     -21.767  10.974 -31.660  1.00  0.00    -0.275 OA
ATOM     36  C   UNL     1     -20.498  12.941 -32.090  1.00  0.00    +0.114 C 
ENDBRANCH  27  28
ENDBRANCH  21  22
ENDBRANCH   1  21
TORSDOF 7
ENDMDL
MODEL 7
REMARK VINA RESULT:    -9.164      1.942      3.446
REMARK INTER + INTRA:         -14.077
REMARK INTER:                 -13.230
REMARK INTRA:                  -0.847
REMARK UNBOUND:                -1.163
REMARK SMILES CC(=O)N1CCN(c2ccc(OC[C@H]3CO[C@](Cn4ccnc4)(c4ccc(Cl)cc4Cl)O3)cc2)CC1
REMARK SMILES IDX 13 1 14 2 17 3 32 4 16 5 15 6 24 7 30 8 29 9 25 10 27 11
REMARK SMILES IDX 26 12 31 13 28 14 18 15 19 16 20 17 23 18 21 19 22 20 12 21
REMARK SMILES IDX 11 22 10 23 33 24 9 25 34 26 8 27 7 28 6 29 35 30 5 31 36 32
REMARK SMILES IDX 4 33 2 34 3 35 1 36
REMARK H PARENT
ROOT
ATOM      1  C   UNL     1     -28.327  16.638 -23.473  1.00  0.00    +0.264 C 
ENDROOT
BRANCH   1   2
ATOM      2  C   UNL     1     -29.543  15.723 -23.368  1.00  0.00    +0.185 C 
ATOM      3  C   UNL     1     -30.165  13.540 -23.117  1.00  0.00    +0.215 C 
ATOM      4  O   UNL     1     -29.230  14.524 -22.648  1.00  0.00    -0.335 OA
ATOM      5  O   UNL     1     -30.721  14.003 -24.373  1.00  0.00    -0.342 OA
ATOM      6  C   UNL     1     -29.999  15.194 -24.701  1.00  0.00    +0.200 C 
BRANCH   3   7
ATOM      7  C   UNL     1     -31.302  13.385 -22.094  1.00  0.00    +0.032 A 
ATOM      8  C   UNL     1     -32.550  12.807 -22.407  1.00  0.00    +0.051 A 
ATOM      9  C   UNL     1     -33.556  12.687 -21.439  1.00  0.00    +0.041 A 
ATOM     10  C   UNL     1     -31.120  13.851 -20.773  1.00  0.00    +0.012 A 
ATOM     11  C   UNL     1     -33.337  13.148 -20.146  1.00  0.00    +0.042 A 
ATOM     12  C   UNL     1     -32.124  13.733 -19.808  1.00  0.00    +0.021 A 
ATOM     13 Cl   UNL     1     -32.954  12.226 -23.987  1.00  0.00    -0.084 Cl
ATOM     14 Cl   UNL     1     -34.575  13.001 -18.961  1.00  0.00    -0.084 Cl
ENDBRANCH   3   7
BRANCH   3  15
ATOM     15  C   UNL     1     -29.471  12.178 -23.348  1.00  0.00    +0.194 C 
BRANCH  15  16
ATOM     16  N   UNL     1     -28.884  11.619 -22.143  1.00  0.00    -0.332 N 
ATOM     17  C   UNL     1     -29.374  10.573 -21.412  1.00  0.00    +0.107 A 
ATOM     18  C   UNL     1     -27.725  12.031 -21.551  1.00  0.00    +0.199 A 
ATOM     19  C   UNL     1     -28.481  10.414 -20.379  1.00  0.00    +0.130 A 
ATOM     20  N   UNL     1     -27.465  11.331 -20.470  1.00  0.00    -0.245 NA
ENDBRANCH  15  16
ENDBRANCH   3  15
ENDBRANCH   1   2
BRANCH   1  21
ATOM     21  O   UNL     1     -27.154  15.851 -23.249  1.00  0.00    -0.491 OA
BRANCH  21  22
ATOM     22  C   UNL     1     -26.485  15.406 -24.354  1.00  0.00    +0.119 A 
ATOM     23  C   UNL     1     -25.988  14.110 -24.255  1.00  0.00    +0.048 A 
ATOM     24  C   UNL     1     -26.264  16.117 -25.527  1.00  0.00    +0.048 A 
ATOM     25  C   UNL     1     -25.278  13.531 -25.317  1.00  0.00    +0.030 A 
ATOM     26  C   UNL     1     -25.554  15.527 -26.585  1.00  0.00    +0.030 A 
ATOM     27  C   UNL     1     -25.045  14.220 -26.515  1.00  0.00    +0.037 A 
BRANCH  27  28
ATOM     28  N   UNL     1     -24.339  13.659 -27.570  1.00  0.00    -0.368 N 
ATOM     29  C   UNL     1     -24.913  12.586 -28.396  1.00  0.00    +0.138 C 
ATOM     30  C   UNL     1     -23.112  14.311 -28.070  1.00  0.00    +0.138 C 
ATOM     31  C   UNL     1     -23.813  11.783 -29.116  1.00  0.00    +0.141 C 
ATOM     32  C   UNL     1     -22.881  14.044 -29.570  1.00  0.00    +0.141 C 
ATOM     33  N   UNL     1     -22.900  12.619 -29.903  1.00  0.00    -0.339 N 
ATOM     34  C   UNL     1     -22.074  12.147 -30.908  1.00  0.00    +0.219 C 
ATOM     35  O   UNL     1     -21.355  12.886 -31.578  1.00  0.00    -0.275 OA
ATOM     36  C   UNL     1     -22.093  10.661 -31.166  1.00  0.00    +0.114 C 
ENDBRANCH  27  28
ENDBRANCH  21  22
ENDBRANCH   1  21
TORSDOF 7
ENDMDL
MODEL 8
REMARK VINA RESULT:    -9.087      2.834      4.925
REMARK INTER + INTRA:         -13.969
REMARK INTER:                 -13.567
REMARK INTRA:                  -0.402
REMARK UNBOUND:                -1.163
REMARK SMILES CC(=O)N1CCN(c2ccc(OC[C@H]3CO[C@](Cn4ccnc4)(c4ccc(Cl)cc4Cl)O3)cc2)CC1
REMARK SMILES IDX 13 1 14 2 17 3 32 4 16 5 15 6 24 7 30 8 29 9 25 10 27 11
REMARK SMILES IDX 26 12 31 13 28 14 18 15 19 16 20 17 23 18 21 19 22 20 12 21
REMARK SMILES IDX 11 22 10 23 33 24 9 25 34 26 8 27 7 28 6 29 35 30 5 31 36 32
REMARK SMILES IDX 4 33 2 34 3 35 1 36
REMARK H PARENT
ROOT
ATOM      1  C   UNL     1     -27.153  14.258 -20.639  1.00  0.00    +0.264 C 
ENDROOT
BRANCH   1   2
ATOM      2  C   UNL     1     -27.398  12.772 -20.883  1.00  0.00    +0.185 C 
ATOM      3  C   UNL     1     -28.898  11.292 -21.761  1.00  0.00    +0.215 C 
ATOM      4  O   UNL     1     -28.278  12.566 -21.995  1.00  0.00    -0.335 OA
ATOM      5  O   UNL     1     -28.732  10.954 -20.361  1.00  0.00    -0.342 OA
ATOM      6  C   UNL     1     -28.136  12.104 -19.754  1.00  0.00    +0.200 C 
BRANCH   3   7
ATOM      7  C   UNL     1     -28.207  10.220 -22.620  1.00  0.00    +0.032 A 
ATOM      8  C   UNL     1     -28.513   8.845 -22.534  1.00  0.00    +0.051 A 
ATOM      9  C   UNL     1     -27.855   7.906 -23.339  1.00  0.00    +0.041 A 
ATOM     10  C   UNL     1     -27.199  10.602 -23.533  1.00  0.00    +0.012 A 
ATOM     11  C   UNL     1     -26.876   8.320 -24.235  1.00  0.00    +0.042 A 
ATOM     12  C   UNL     1     -26.542   9.664 -24.334  1.00  0.00    +0.021 A 
ATOM     13 Cl   UNL     1     -29.688   8.204 -21.437  1.00  0.00    -0.084 Cl
ATOM     14 Cl   UNL     1     -26.069   7.163 -25.219  1.00  0.00    -0.084 Cl
ENDBRANCH   3   7
BRANCH   3  15
ATOM     15  C   UNL     1     -30.408  11.339 -22.088  1.00  0.00    +0.194 C 
BRANCH  15  16
ATOM     16  N   UNL     1     -31.135  12.329 -21.312  1.00  0.00    -0.332 N 
ATOM     17  C   UNL     1     -31.930  12.085 -20.227  1.00  0.00    +0.107 A 
ATOM     18  C   UNL     1     -31.124  13.678 -21.523  1.00  0.00    +0.199 A 
ATOM     19  C   UNL     1     -32.389  13.322 -19.839  1.00  0.00    +0.130 A 
ATOM     20  N   UNL     1     -31.889  14.303 -20.657  1.00  0.00    -0.245 NA
ENDBRANCH  15  16
ENDBRANCH   3  15
ENDBRANCH   1   2
BRANCH   1  21
ATOM     21  O   UNL     1     -27.457  14.965 -21.845  1.00  0.00    -0.491 OA
BRANCH  21  22
ATOM     22  C   UNL     1     -26.678  14.697 -22.934  1.00  0.00    +0.119 A 
ATOM     23  C   UNL     1     -27.324  14.818 -24.161  1.00  0.00    +0.048 A 
ATOM     24  C   UNL     1     -25.340  14.322 -22.920  1.00  0.00    +0.048 A 
ATOM     25  C   UNL     1     -26.641  14.569 -25.360  1.00  0.00    +0.030 A 
ATOM     26  C   UNL     1     -24.665  14.076 -24.126  1.00  0.00    +0.030 A 
ATOM     27  C   UNL     1     -25.290  14.195 -25.378  1.00  0.00    +0.037 A 
BRANCH  27  28
ATOM     28  N   UNL     1     -24.606  13.940 -26.558  1.00  0.00    -0.368 N 
ATOM     29  C   UNL     1     -25.122  12.992 -27.557  1.00  0.00    +0.138 C 
ATOM     30  C   UNL     1     -23.493  14.817 -26.974  1.00  0.00    +0.138 C 
ATOM     31  C   UNL     1     -23.998  12.482 -28.479  1.00  0.00    +0.141 C 
ATOM     32  C   UNL     1     -23.343  14.881 -28.506  1.00  0.00    +0.141 C 
ATOM     33  N   UNL     1     -23.236  13.557 -29.122  1.00  0.00    -0.339 N 
ATOM     34  C   UNL     1     -22.440  13.394 -30.241  1.00  0.00    +0.219 C 
ATOM     35  O   UNL     1     -21.851  14.330 -30.781  1.00  0.00    -0.275 OA
ATOM     36  C   UNL     1     -22.321  11.997 -30.796  1.00  0.00    +0.114 C 
ENDBRANCH  27  28
ENDBRANCH  21  22
ENDBRANCH   1  21
TORSDOF 7
ENDMDL
MODEL 9
REMARK VINA RESULT:    -8.942      2.677      3.753
REMARK INTER + INTRA:         -13.765
REMARK INTER:                 -13.067
REMARK INTRA:                  -0.698
REMARK UNBOUND:                -1.163
REMARK SMILES CC(=O)N1CCN(c2ccc(OC[C@H]3CO[C@](Cn4ccnc4)(c4ccc(Cl)cc4Cl)O3)cc2)CC1
REMARK SMILES IDX 13 1 14 2 17 3 32 4 16 5 15 6 24 7 30 8 29 9 25 10 27 11
REMARK SMILES IDX 26 12 31 13 28 14 18 15 19 16 20 17 23 18 21 19 22 20 12 21
REMARK SMILES IDX 11 22 10 23 33 24 9 25 34 26 8 27 7 28 6 29 35 30 5 31 36 32
REMARK SMILES IDX 4 33 2 34 3 35 1 36
REMARK H PARENT
ROOT
ATOM      1  C   UNL     1     -26.674  14.314 -21.134  1.00  0.00    +0.264 C 
ENDROOT
BRANCH   1   2
ATOM      2  C   UNL     1     -27.484  13.041 -20.910  1.00  0.00    +0.185 C 
ATOM      3  C   UNL     1     -29.437  12.000 -21.474  1.00  0.00    +0.215 C 
ATOM      4  O   UNL     1     -28.360  12.781 -22.015  1.00  0.00    -0.335 OA
ATOM      5  O   UNL     1     -29.436  12.158 -20.034  1.00  0.00    -0.342 OA
ATOM      6  C   UNL     1     -28.441  13.147 -19.753  1.00  0.00    +0.200 C 
BRANCH   3   7
ATOM      7  C   UNL     1     -29.217  10.518 -21.815  1.00  0.00    +0.032 A 
ATOM      8  C   UNL     1     -28.449  10.083 -22.916  1.00  0.00    +0.051 A 
ATOM      9  C   UNL     1     -28.277   8.719 -23.186  1.00  0.00    +0.041 A 
ATOM     10  C   UNL     1     -29.816   9.521 -21.013  1.00  0.00    +0.012 A 
ATOM     11  C   UNL     1     -28.874   7.766 -22.368  1.00  0.00    +0.042 A 
ATOM     12  C   UNL     1     -29.646   8.161 -21.284  1.00  0.00    +0.021 A 
ATOM     13 Cl   UNL     1     -27.683  11.171 -24.024  1.00  0.00    -0.084 Cl
ATOM     14 Cl   UNL     1     -28.662   6.093 -22.705  1.00  0.00    -0.084 Cl
ENDBRANCH   3   7
BRANCH   3  15
ATOM     15  C   UNL     1     -30.801  12.473 -22.028  1.00  0.00    +0.194 C 
BRANCH  15  16
ATOM     16  N   UNL     1     -30.691  13.211 -23.276  1.00  0.00    -0.332 N 
ATOM     17  C   UNL     1     -30.890  12.712 -24.533  1.00  0.00    +0.107 A 
ATOM     18  C   UNL     1     -30.393  14.538 -23.398  1.00  0.00    +0.199 A 
ATOM     19  C   UNL     1     -30.677  13.779 -25.374  1.00  0.00    +0.130 A 
ATOM     20  N   UNL     1     -30.361  14.905 -24.659  1.00  0.00    -0.245 NA
ENDBRANCH  15  16
ENDBRANCH   3  15
ENDBRANCH   1   2
BRANCH   1  21
ATOM     21  O   UNL     1     -27.208  14.989 -22.277  1.00  0.00    -0.491 OA
BRANCH  21  22
ATOM     22  C   UNL     1     -26.589  14.768 -23.474  1.00  0.00    +0.119 A 
ATOM     23  C   UNL     1     -25.397  14.056 -23.394  1.00  0.00    +0.048 A 
ATOM     24  C   UNL     1     -27.034  15.185 -24.722  1.00  0.00    +0.048 A 
ATOM     25  C   UNL     1     -24.657  13.762 -24.548  1.00  0.00    +0.030 A 
ATOM     26  C   UNL     1     -26.287  14.884 -25.873  1.00  0.00    +0.030 A 
ATOM     27  C   UNL     1     -25.083  14.163 -25.822  1.00  0.00    +0.037 A 
BRANCH  27  28
ATOM     28  N   UNL     1     -24.356  13.883 -26.971  1.00  0.00    -0.368 N 
ATOM     29  C   UNL     1     -24.840  12.923 -27.974  1.00  0.00    +0.138 C 
ATOM     30  C   UNL     1     -23.220  14.745 -27.357  1.00  0.00    +0.138 C 
ATOM     31  C   UNL     1     -23.685  12.390 -28.843  1.00  0.00    +0.141 C 
ATOM     32  C   UNL     1     -23.010  14.783 -28.882  1.00  0.00    +0.141 C 
ATOM     33  N   UNL     1     -22.890  13.448 -29.472  1.00  0.00    -0.339 N 
ATOM     34  C   UNL     1     -22.051  13.261 -30.556  1.00  0.00    +0.219 C 
ATOM     35  O   UNL     1     -21.435  14.184 -31.088  1.00  0.00    -0.275 OA
ATOM     36  C   UNL     1     -21.922  11.854 -31.084  1.00  0.00    +0.114 C 
ENDBRANCH  27  28
ENDBRANCH  21  22
ENDBRANCH   1  21
TORSDOF 7
ENDMDL
