MODEL 1
REMARK VINA RESULT:    -6.836      0.000      0.000
REMARK INTER + INTRA:         -10.808
REMARK INTER:                  -9.633
REMARK INTRA:                  -1.175
REMARK UNBOUND:                -1.175
REMARK SMILES CC(=O)N1CCN(c2ccc(OC[C@H]3CO[C@](Cn4ccnc4)(c4ccc(Cl)cc4Cl)O3)cc2)CC1
REMARK SMILES IDX 13 1 14 2 17 3 32 4 16 5 15 6 24 7 30 8 29 9 25 10 27 11
REMARK SMILES IDX 26 12 31 13 28 14 18 15 19 16 20 17 23 18 21 19 22 20 12 21
REMARK SMILES IDX 11 22 10 23 33 24 9 25 34 26 8 27 7 28 6 29 35 30 5 31 36 32
REMARK SMILES IDX 4 33 2 34 3 35 1 36
REMARK H PARENT
ROOT
ATOM      1  C   UNL     1      12.017  54.563  -5.251  1.00  0.00    +0.264 C 
ENDROOT
BRANCH   1   2
ATOM      2  C   UNL     1      11.004  55.692  -5.093  1.00  0.00    +0.185 C 
ATOM      3  C   UNL     1      10.452  57.475  -3.777  1.00  0.00    +0.215 C 
ATOM      4  O   UNL     1      11.567  56.800  -4.379  1.00  0.00    -0.335 OA
ATOM      5  O   UNL     1       9.323  56.566  -3.764  1.00  0.00    -0.342 OA
ATOM      6  C   UNL     1       9.829  55.313  -4.232  1.00  0.00    +0.200 C 
BRANCH   3   7
ATOM      7  C   UNL     1      10.088  58.712  -4.615  1.00  0.00    +0.032 A 
ATOM      8  C   UNL     1      11.002  59.749  -4.899  1.00  0.00    +0.051 A 
ATOM      9  C   UNL     1      10.622  60.858  -5.667  1.00  0.00    +0.041 A 
ATOM     10  C   UNL     1       8.776  58.850  -5.120  1.00  0.00    +0.012 A 
ATOM     11  C   UNL     1       9.325  60.954  -6.158  1.00  0.00    +0.042 A 
ATOM     12  C   UNL     1       8.398  59.957  -5.885  1.00  0.00    +0.021 A 
ATOM     13 Cl   UNL     1      12.633  59.759  -4.319  1.00  0.00    -0.084 Cl
ATOM     14 Cl   UNL     1       8.863  62.318  -7.098  1.00  0.00    -0.084 Cl
ENDBRANCH   3   7
BRANCH   3  15
ATOM     15  C   UNL     1      10.774  57.895  -2.325  1.00  0.00    +0.194 C 
BRANCH  15  16
ATOM     16  N   UNL     1      11.789  57.067  -1.697  1.00  0.00    -0.332 N 
ATOM     17  C   UNL     1      13.115  57.370  -1.564  1.00  0.00    +0.107 A 
ATOM     18  C   UNL     1      11.581  55.851  -1.111  1.00  0.00    +0.199 A 
ATOM     19  C   UNL     1      13.661  56.292  -0.909  1.00  0.00    +0.130 A 
ATOM     20  N   UNL     1      12.701  55.350  -0.641  1.00  0.00    -0.245 NA
ENDBRANCH  15  16
ENDBRANCH   3  15
ENDBRANCH   1   2
BRANCH   1  21
ATOM     21  O   UNL     1      12.320  54.049  -3.951  1.00  0.00    -0.491 OA
BRANCH  21  22
ATOM     22  C   UNL     1      12.012  52.740  -3.713  1.00  0.00    +0.119 A 
ATOM     23  C   UNL     1      12.379  52.270  -2.456  1.00  0.00    +0.048 A 
ATOM     24  C   UNL     1      11.385  51.867  -4.594  1.00  0.00    +0.048 A 
ATOM     25  C   UNL     1      12.123  50.942  -2.083  1.00  0.00    +0.030 A 
ATOM     26  C   UNL     1      11.131  50.540  -4.210  1.00  0.00    +0.030 A 
ATOM     27  C   UNL     1      11.487  50.040  -2.947  1.00  0.00    +0.037 A 
BRANCH  27  28
ATOM     28  N   UNL     1      11.234  48.723  -2.590  1.00  0.00    -0.368 N 
ATOM     29  C   UNL     1      11.292  47.633  -3.577  1.00  0.00    +0.138 C 
ATOM     30  C   UNL     1      11.180  48.339  -1.165  1.00  0.00    +0.138 C 
ATOM     31  C   UNL     1      10.488  46.407  -3.104  1.00  0.00    +0.141 C 
ATOM     32  C   UNL     1      11.615  46.879  -0.939  1.00  0.00    +0.141 C 
ATOM     33  N   UNL     1      10.877  45.930  -1.773  1.00  0.00    -0.339 N 
ATOM     34  C   UNL     1      10.587  44.672  -1.275  1.00  0.00    +0.219 C 
ATOM     35  O   UNL     1      10.971  44.291  -0.170  1.00  0.00    -0.275 OA
ATOM     36  C   UNL     1       9.774  43.759  -2.157  1.00  0.00    +0.114 C 
ENDBRANCH  27  28
ENDBRANCH  21  22
ENDBRANCH   1  21
TORSDOF 7
ENDMDL
MODEL 2
REMARK VINA RESULT:    -6.808      2.691      5.029
REMARK INTER + INTRA:         -10.768
REMARK INTER:                 -10.016
REMARK INTRA:                  -0.753
REMARK UNBOUND:                -1.175
REMARK SMILES CC(=O)N1CCN(c2ccc(OC[C@H]3CO[C@](Cn4ccnc4)(c4ccc(Cl)cc4Cl)O3)cc2)CC1
REMARK SMILES IDX 13 1 14 2 17 3 32 4 16 5 15 6 24 7 30 8 29 9 25 10 27 11
REMARK SMILES IDX 26 12 31 13 28 14 18 15 19 16 20 17 23 18 21 19 22 20 12 21
REMARK SMILES IDX 11 22 10 23 33 24 9 25 34 26 8 27 7 28 6 29 35 30 5 31 36 32
REMARK SMILES IDX 4 33 2 34 3 35 1 36
REMARK H PARENT
ROOT
ATOM      1  C   UNL     1      15.172  54.105  -2.026  1.00  0.00    +0.264 C 
ENDROOT
BRANCH   1   2
ATOM      2  C   UNL     1      14.735  55.404  -1.357  1.00  0.00    +0.185 C 
ATOM      3  C   UNL     1      12.900  56.550  -0.625  1.00  0.00    +0.215 C 
ATOM      4  O   UNL     1      13.488  55.241  -0.668  1.00  0.00    -0.335 OA
ATOM      5  O   UNL     1      13.550  57.375  -1.624  1.00  0.00    -0.342 OA
ATOM      6  C   UNL     1      14.421  56.498  -2.343  1.00  0.00    +0.200 C 
BRANCH   3   7
ATOM      7  C   UNL     1      13.130  57.170   0.763  1.00  0.00    +0.032 A 
ATOM      8  C   UNL     1      13.068  58.558   1.009  1.00  0.00    +0.051 A 
ATOM      9  C   UNL     1      13.286  59.076   2.293  1.00  0.00    +0.041 A 
ATOM     10  C   UNL     1      13.439  56.333   1.858  1.00  0.00    +0.012 A 
ATOM     11  C   UNL     1      13.577  58.220   3.349  1.00  0.00    +0.042 A 
ATOM     12  C   UNL     1      13.658  56.850   3.137  1.00  0.00    +0.021 A 
ATOM     13 Cl   UNL     1      12.746  59.726  -0.228  1.00  0.00    -0.084 Cl
ATOM     14 Cl   UNL     1      13.846  58.860   4.923  1.00  0.00    -0.084 Cl
ENDBRANCH   3   7
BRANCH   3  15
ATOM     15  C   UNL     1      11.386  56.490  -0.933  1.00  0.00    +0.194 C 
BRANCH  15  16
ATOM     16  N   UNL     1      11.061  56.870  -2.298  1.00  0.00    -0.332 N 
ATOM     17  C   UNL     1      10.942  56.027  -3.367  1.00  0.00    +0.107 A 
ATOM     18  C   UNL     1      10.795  58.136  -2.735  1.00  0.00    +0.199 A 
ATOM     19  C   UNL     1      10.624  56.844  -4.427  1.00  0.00    +0.130 A 
ATOM     20  N   UNL     1      10.544  58.152  -4.025  1.00  0.00    -0.245 NA
ENDBRANCH  15  16
ENDBRANCH   3  15
ENDBRANCH   1   2
BRANCH   1  21
ATOM     21  O   UNL     1      14.149  53.708  -2.944  1.00  0.00    -0.491 OA
BRANCH  21  22
ATOM     22  C   UNL     1      13.506  52.531  -2.687  1.00  0.00    +0.119 A 
ATOM     23  C   UNL     1      14.309  51.397  -2.759  1.00  0.00    +0.048 A 
ATOM     24  C   UNL     1      12.162  52.376  -2.372  1.00  0.00    +0.048 A 
ATOM     25  C   UNL     1      13.776  50.123  -2.520  1.00  0.00    +0.030 A 
ATOM     26  C   UNL     1      11.637  51.096  -2.132  1.00  0.00    +0.030 A 
ATOM     27  C   UNL     1      12.425  49.935  -2.194  1.00  0.00    +0.037 A 
BRANCH  27  28
ATOM     28  N   UNL     1      11.885  48.678  -1.961  1.00  0.00    -0.368 N 
ATOM     29  C   UNL     1      12.704  47.460  -2.051  1.00  0.00    +0.138 C 
ATOM     30  C   UNL     1      10.551  48.548  -1.341  1.00  0.00    +0.138 C 
ATOM     31  C   UNL     1      11.829  46.212  -2.280  1.00  0.00    +0.141 C 
ATOM     32  C   UNL     1      10.415  47.253  -0.519  1.00  0.00    +0.141 C 
ATOM     33  N   UNL     1      10.764  46.054  -1.285  1.00  0.00    -0.339 N 
ATOM     34  C   UNL     1      10.086  44.874  -1.041  1.00  0.00    +0.219 C 
ATOM     35  O   UNL     1       9.229  44.767  -0.165  1.00  0.00    -0.275 OA
ATOM     36  C   UNL     1      10.449  43.689  -1.901  1.00  0.00    +0.114 C 
ENDBRANCH  27  28
ENDBRANCH  21  22
ENDBRANCH   1  21
TORSDOF 7
ENDMDL
MODEL 3
REMARK VINA RESULT:    -6.796      6.731     10.633
REMARK INTER + INTRA:         -10.752
REMARK INTER:                 -10.069
REMARK INTRA:                  -0.683
REMARK UNBOUND:                -1.175
REMARK SMILES CC(=O)N1CCN(c2ccc(OC[C@H]3CO[C@](Cn4ccnc4)(c4ccc(Cl)cc4Cl)O3)cc2)CC1
REMARK SMILES IDX 13 1 14 2 17 3 32 4 16 5 15 6 24 7 30 8 29 9 25 10 27 11
REMARK SMILES IDX 26 12 31 13 28 14 18 15 19 16 20 17 23 18 21 19 22 20 12 21
REMARK SMILES IDX 11 22 10 23 33 24 9 25 34 26 8 27 7 28 6 29 35 30 5 31 36 32
REMARK SMILES IDX 4 33 2 34 3 35 1 36
REMARK H PARENT
ROOT
ATOM      1  C   UNL     1      15.499  46.782  -0.980  1.00  0.00    +0.264 C 
ENDROOT
BRANCH   1   2
ATOM      2  C   UNL     1      14.466  47.492  -1.850  1.00  0.00    +0.185 C 
ATOM      3  C   UNL     1      12.295  48.199  -1.893  1.00  0.00    +0.215 C 
ATOM      4  O   UNL     1      13.455  48.118  -1.051  1.00  0.00    -0.335 OA
ATOM      5  O   UNL     1      12.466  47.269  -2.992  1.00  0.00    -0.342 OA
ATOM      6  C   UNL     1      13.666  46.546  -2.706  1.00  0.00    +0.200 C 
BRANCH   3   7
ATOM      7  C   UNL     1      12.169  49.623  -2.458  1.00  0.00    +0.032 A 
ATOM      8  C   UNL     1      11.270  49.969  -3.489  1.00  0.00    +0.051 A 
ATOM      9  C   UNL     1      11.192  51.283  -3.971  1.00  0.00    +0.041 A 
ATOM     10  C   UNL     1      12.996  50.650  -1.951  1.00  0.00    +0.012 A 
ATOM     11  C   UNL     1      12.015  52.270  -3.439  1.00  0.00    +0.042 A 
ATOM     12  C   UNL     1      12.919  51.959  -2.433  1.00  0.00    +0.021 A 
ATOM     13 Cl   UNL     1      10.219  48.825  -4.251  1.00  0.00    -0.084 Cl
ATOM     14 Cl   UNL     1      11.917  53.880  -4.036  1.00  0.00    -0.084 Cl
ENDBRANCH   3   7
BRANCH   3  15
ATOM     15  C   UNL     1      11.014  47.823  -1.114  1.00  0.00    +0.194 C 
BRANCH  15  16
ATOM     16  N   UNL     1      10.735  46.397  -1.117  1.00  0.00    -0.332 N 
ATOM     17  C   UNL     1       9.917  45.733  -1.988  1.00  0.00    +0.107 A 
ATOM     18  C   UNL     1      11.266  45.475  -0.262  1.00  0.00    +0.199 A 
ATOM     19  C   UNL     1       9.976  44.417  -1.596  1.00  0.00    +0.130 A 
ATOM     20  N   UNL     1      10.811  44.269  -0.517  1.00  0.00    -0.245 NA
ENDBRANCH  15  16
ENDBRANCH   3  15
ENDBRANCH   1   2
BRANCH   1  21
ATOM     21  O   UNL     1      14.834  46.278   0.182  1.00  0.00    -0.491 OA
BRANCH  21  22
ATOM     22  C   UNL     1      15.576  46.170   1.324  1.00  0.00    +0.119 A 
ATOM     23  C   UNL     1      14.837  45.995   2.489  1.00  0.00    +0.048 A 
ATOM     24  C   UNL     1      16.962  46.220   1.414  1.00  0.00    +0.048 A 
ATOM     25  C   UNL     1      15.474  45.872   3.732  1.00  0.00    +0.030 A 
ATOM     26  C   UNL     1      17.591  46.094   2.663  1.00  0.00    +0.030 A 
ATOM     27  C   UNL     1      16.870  45.913   3.855  1.00  0.00    +0.037 A 
BRANCH  27  28
ATOM     28  N   UNL     1      17.511  45.798   5.081  1.00  0.00    -0.368 N 
ATOM     29  C   UNL     1      17.547  46.914   6.038  1.00  0.00    +0.138 C 
ATOM     30  C   UNL     1      17.928  44.471   5.577  1.00  0.00    +0.138 C 
ATOM     31  C   UNL     1      18.710  46.758   7.037  1.00  0.00    +0.141 C 
ATOM     32  C   UNL     1      17.928  44.399   7.116  1.00  0.00    +0.141 C 
ATOM     33  N   UNL     1      18.712  45.469   7.735  1.00  0.00    -0.339 N 
ATOM     34  C   UNL     1      19.399  45.213   8.908  1.00  0.00    +0.219 C 
ATOM     35  O   UNL     1      19.340  44.131   9.491  1.00  0.00    -0.275 OA
ATOM     36  C   UNL     1      20.237  46.336   9.467  1.00  0.00    +0.114 C 
ENDBRANCH  27  28
ENDBRANCH  21  22
ENDBRANCH   1  21
TORSDOF 7
ENDMDL
MODEL 4
REMARK VINA RESULT:    -6.737     10.064     12.495
REMARK INTER + INTRA:         -10.668
REMARK INTER:                  -9.881
REMARK INTRA:                  -0.787
REMARK UNBOUND:                -1.175
REMARK SMILES CC(=O)N1CCN(c2ccc(OC[C@H]3CO[C@](Cn4ccnc4)(c4ccc(Cl)cc4Cl)O3)cc2)CC1
REMARK SMILES IDX 13 1 14 2 17 3 32 4 16 5 15 6 24 7 30 8 29 9 25 10 27 11
REMARK SMILES IDX 26 12 31 13 28 14 18 15 19 16 20 17 23 18 21 19 22 20 12 21
REMARK SMILES IDX 11 22 10 23 33 24 9 25 34 26 8 27 7 28 6 29 35 30 5 31 36 32
REMARK SMILES IDX 4 33 2 34 3 35 1 36
REMARK H PARENT
ROOT
ATOM      1  C   UNL     1      13.622  57.736   4.319  1.00  0.00    +0.264 C 
ENDROOT
BRANCH   1   2
ATOM      2  C   UNL     1      14.285  58.016   5.664  1.00  0.00    +0.185 C 
ATOM      3  C   UNL     1      14.209  59.395   7.483  1.00  0.00    +0.215 C 
ATOM      4  O   UNL     1      13.379  58.664   6.566  1.00  0.00    -0.335 OA
ATOM      5  O   UNL     1      15.525  59.537   6.893  1.00  0.00    -0.342 OA
ATOM      6  C   UNL     1      15.415  59.007   5.569  1.00  0.00    +0.200 C 
BRANCH   3   7
ATOM      7  C   UNL     1      14.332  58.611   8.799  1.00  0.00    +0.032 A 
ATOM      8  C   UNL     1      13.220  58.234   9.582  1.00  0.00    +0.051 A 
ATOM      9  C   UNL     1      13.385  57.520  10.776  1.00  0.00    +0.041 A 
ATOM     10  C   UNL     1      15.611  58.255   9.281  1.00  0.00    +0.012 A 
ATOM     11  C   UNL     1      14.659  57.177  11.214  1.00  0.00    +0.042 A 
ATOM     12  C   UNL     1      15.774  57.544  10.473  1.00  0.00    +0.021 A 
ATOM     13 Cl   UNL     1      11.589  58.630   9.161  1.00  0.00    -0.084 Cl
ATOM     14 Cl   UNL     1      14.855  56.302  12.681  1.00  0.00    -0.084 Cl
ENDBRANCH   3   7
BRANCH   3  15
ATOM     15  C   UNL     1      13.629  60.802   7.757  1.00  0.00    +0.194 C 
BRANCH  15  16
ATOM     16  N   UNL     1      13.043  61.422   6.581  1.00  0.00    -0.332 N 
ATOM     17  C   UNL     1      11.729  61.371   6.208  1.00  0.00    +0.107 A 
ATOM     18  C   UNL     1      13.706  62.184   5.663  1.00  0.00    +0.199 A 
ATOM     19  C   UNL     1      11.663  62.102   5.045  1.00  0.00    +0.130 A 
ATOM     20  N   UNL     1      12.899  62.595   4.711  1.00  0.00    -0.245 NA
ENDBRANCH  15  16
ENDBRANCH   3  15
ENDBRANCH   1   2
BRANCH   1  21
ATOM     21  O   UNL     1      14.558  57.034   3.497  1.00  0.00    -0.491 OA
BRANCH  21  22
ATOM     22  C   UNL     1      15.142  55.921   4.032  1.00  0.00    +0.119 A 
ATOM     23  C   UNL     1      16.533  55.909   3.985  1.00  0.00    +0.048 A 
ATOM     24  C   UNL     1      14.485  54.836   4.599  1.00  0.00    +0.048 A 
ATOM     25  C   UNL     1      17.259  54.824   4.498  1.00  0.00    +0.030 A 
ATOM     26  C   UNL     1      15.221  53.756   5.112  1.00  0.00    +0.030 A 
ATOM     27  C   UNL     1      16.625  53.719   5.081  1.00  0.00    +0.037 A 
BRANCH  27  28
ATOM     28  N   UNL     1      17.333  52.637   5.587  1.00  0.00    -0.368 N 
ATOM     29  C   UNL     1      18.339  52.804   6.647  1.00  0.00    +0.138 C 
ATOM     30  C   UNL     1      16.901  51.259   5.279  1.00  0.00    +0.138 C 
ATOM     31  C   UNL     1      19.332  51.626   6.667  1.00  0.00    +0.141 C 
ATOM     32  C   UNL     1      17.264  50.271   6.404  1.00  0.00    +0.141 C 
ATOM     33  N   UNL     1      18.683  50.315   6.763  1.00  0.00    -0.339 N 
ATOM     34  C   UNL     1      19.318  49.151   7.156  1.00  0.00    +0.219 C 
ATOM     35  O   UNL     1      18.729  48.077   7.269  1.00  0.00    -0.275 OA
ATOM     36  C   UNL     1      20.793  49.247   7.456  1.00  0.00    +0.114 C 
ENDBRANCH  27  28
ENDBRANCH  21  22
ENDBRANCH   1  21
TORSDOF 7
ENDMDL
MODEL 5
REMARK VINA RESULT:    -6.591      9.661     12.190
REMARK INTER + INTRA:         -10.463
REMARK INTER:                 -10.041
REMARK INTRA:                  -0.422
REMARK UNBOUND:                -1.175
REMARK SMILES CC(=O)N1CCN(c2ccc(OC[C@H]3CO[C@](Cn4ccnc4)(c4ccc(Cl)cc4Cl)O3)cc2)CC1
REMARK SMILES IDX 13 1 14 2 17 3 32 4 16 5 15 6 24 7 30 8 29 9 25 10 27 11
REMARK SMILES IDX 26 12 31 13 28 14 18 15 19 16 20 17 23 18 21 19 22 20 12 21
REMARK SMILES IDX 11 22 10 23 33 24 9 25 34 26 8 27 7 28 6 29 35 30 5 31 36 32
REMARK SMILES IDX 4 33 2 34 3 35 1 36
REMARK H PARENT
ROOT
ATOM      1  C   UNL     1      13.576  58.131   3.156  1.00  0.00    +0.264 C 
ENDROOT
BRANCH   1   2
ATOM      2  C   UNL     1      13.863  58.592   4.582  1.00  0.00    +0.185 C 
ATOM      3  C   UNL     1      13.101  59.960   6.243  1.00  0.00    +0.215 C 
ATOM      4  O   UNL     1      12.667  59.033   5.236  1.00  0.00    -0.335 OA
ATOM      5  O   UNL     1      14.446  60.390   5.917  1.00  0.00    -0.342 OA
ATOM      6  C   UNL     1      14.737  59.816   4.640  1.00  0.00    +0.200 C 
BRANCH   3   7
ATOM      7  C   UNL     1      13.117  59.260   7.612  1.00  0.00    +0.032 A 
ATOM      8  C   UNL     1      11.961  59.077   8.400  1.00  0.00    +0.051 A 
ATOM      9  C   UNL     1      12.028  58.432   9.643  1.00  0.00    +0.041 A 
ATOM     10  C   UNL     1      14.339  58.784   8.137  1.00  0.00    +0.012 A 
ATOM     11  C   UNL     1      13.247  57.967  10.123  1.00  0.00    +0.042 A 
ATOM     12  C   UNL     1      14.404  58.143   9.377  1.00  0.00    +0.021 A 
ATOM     13 Cl   UNL     1      10.394  59.639   7.927  1.00  0.00    -0.084 Cl
ATOM     14 Cl   UNL     1      13.323  57.179  11.649  1.00  0.00    -0.084 Cl
ENDBRANCH   3   7
BRANCH   3  15
ATOM     15  C   UNL     1      12.178  61.199   6.294  1.00  0.00    +0.194 C 
BRANCH  15  16
ATOM     16  N   UNL     1      12.860  62.408   6.722  1.00  0.00    -0.332 N 
ATOM     17  C   UNL     1      13.337  63.400   5.912  1.00  0.00    +0.107 A 
ATOM     18  C   UNL     1      13.117  62.768   8.014  1.00  0.00    +0.199 A 
ATOM     19  C   UNL     1      13.891  64.322   6.769  1.00  0.00    +0.130 A 
ATOM     20  N   UNL     1      13.756  63.914   8.072  1.00  0.00    -0.245 NA
ENDBRANCH  15  16
ENDBRANCH   3  15
ENDBRANCH   1   2
BRANCH   1  21
ATOM     21  O   UNL     1      13.182  56.756   3.202  1.00  0.00    -0.491 OA
BRANCH  21  22
ATOM     22  C   UNL     1      14.035  55.886   3.819  1.00  0.00    +0.119 A 
ATOM     23  C   UNL     1      15.376  56.041   3.481  1.00  0.00    +0.048 A 
ATOM     24  C   UNL     1      13.686  54.890   4.723  1.00  0.00    +0.048 A 
ATOM     25  C   UNL     1      16.358  55.211   4.041  1.00  0.00    +0.030 A 
ATOM     26  C   UNL     1      14.677  54.066   5.280  1.00  0.00    +0.030 A 
ATOM     27  C   UNL     1      16.038  54.202   4.961  1.00  0.00    +0.037 A 
BRANCH  27  28
ATOM     28  N   UNL     1      17.001  53.371   5.516  1.00  0.00    -0.368 N 
ATOM     29  C   UNL     1      17.036  51.930   5.224  1.00  0.00    +0.138 C 
ATOM     30  C   UNL     1      18.182  53.951   6.186  1.00  0.00    +0.138 C 
ATOM     31  C   UNL     1      17.804  51.156   6.312  1.00  0.00    +0.141 C 
ATOM     32  C   UNL     1      19.417  53.035   6.085  1.00  0.00    +0.141 C 
ATOM     33  N   UNL     1      19.154  51.674   6.555  1.00  0.00    -0.339 N 
ATOM     34  C   UNL     1      20.160  50.971   7.192  1.00  0.00    +0.219 C 
ATOM     35  O   UNL     1      21.296  51.421   7.337  1.00  0.00    -0.275 OA
ATOM     36  C   UNL     1      19.813  49.597   7.707  1.00  0.00    +0.114 C 
ENDBRANCH  27  28
ENDBRANCH  21  22
ENDBRANCH   1  21
TORSDOF 7
ENDMDL
MODEL 6
REMARK VINA RESULT:    -6.508     10.166     15.740
REMARK INTER + INTRA:         -10.346
REMARK INTER:                  -9.536
REMARK INTRA:                  -0.810
REMARK UNBOUND:                -1.175
REMARK SMILES CC(=O)N1CCN(c2ccc(OC[C@H]3CO[C@](Cn4ccnc4)(c4ccc(Cl)cc4Cl)O3)cc2)CC1
REMARK SMILES IDX 13 1 14 2 17 3 32 4 16 5 15 6 24 7 30 8 29 9 25 10 27 11
REMARK SMILES IDX 26 12 31 13 28 14 18 15 19 16 20 17 23 18 21 19 22 20 12 21
REMARK SMILES IDX 11 22 10 23 33 24 9 25 34 26 8 27 7 28 6 29 35 30 5 31 36 32
REMARK SMILES IDX 4 33 2 34 3 35 1 36
REMARK H PARENT
ROOT
ATOM      1  C   UNL     1      18.513  52.263   5.139  1.00  0.00    +0.264 C 
ENDROOT
BRANCH   1   2
ATOM      2  C   UNL     1      18.754  51.018   5.987  1.00  0.00    +0.185 C 
ATOM      3  C   UNL     1      18.640  48.737   5.950  1.00  0.00    +0.215 C 
ATOM      4  O   UNL     1      19.030  49.875   5.166  1.00  0.00    -0.335 OA
ATOM      5  O   UNL     1      17.763  49.194   7.010  1.00  0.00    -0.342 OA
ATOM      6  C   UNL     1      17.534  50.582   6.753  1.00  0.00    +0.200 C 
BRANCH   3   7
ATOM      7  C   UNL     1      19.888  48.093   6.575  1.00  0.00    +0.032 A 
ATOM      8  C   UNL     1      21.012  47.696   5.821  1.00  0.00    +0.051 A 
ATOM      9  C   UNL     1      22.128  47.112   6.437  1.00  0.00    +0.041 A 
ATOM     10  C   UNL     1      19.929  47.859   7.967  1.00  0.00    +0.012 A 
ATOM     11  C   UNL     1      22.136  46.907   7.812  1.00  0.00    +0.042 A 
ATOM     12  C   UNL     1      21.040  47.275   8.580  1.00  0.00    +0.021 A 
ATOM     13 Cl   UNL     1      21.108  47.869   4.101  1.00  0.00    -0.084 Cl
ATOM     14 Cl   UNL     1      23.506  46.188   8.563  1.00  0.00    -0.084 Cl
ENDBRANCH   3   7
BRANCH   3  15
ATOM     15  C   UNL     1      17.884  47.700   5.088  1.00  0.00    +0.194 C 
BRANCH  15  16
ATOM     16  N   UNL     1      16.832  47.007   5.811  1.00  0.00    -0.332 N 
ATOM     17  C   UNL     1      15.503  47.325   5.812  1.00  0.00    +0.107 A 
ATOM     18  C   UNL     1      16.994  45.901   6.596  1.00  0.00    +0.199 A 
ATOM     19  C   UNL     1      14.915  46.390   6.631  1.00  0.00    +0.130 A 
ATOM     20  N   UNL     1      15.853  45.516   7.120  1.00  0.00    -0.245 NA
ENDBRANCH  15  16
ENDBRANCH   3  15
ENDBRANCH   1   2
BRANCH   1  21
ATOM     21  O   UNL     1      17.111  52.353   4.866  1.00  0.00    -0.491 OA
BRANCH  21  22
ATOM     22  C   UNL     1      16.535  53.587   4.980  1.00  0.00    +0.119 A 
ATOM     23  C   UNL     1      15.144  53.584   5.012  1.00  0.00    +0.048 A 
ATOM     24  C   UNL     1      17.201  54.804   5.061  1.00  0.00    +0.048 A 
ATOM     25  C   UNL     1      14.426  54.783   5.123  1.00  0.00    +0.030 A 
ATOM     26  C   UNL     1      16.472  55.999   5.174  1.00  0.00    +0.030 A 
ATOM     27  C   UNL     1      15.069  56.025   5.212  1.00  0.00    +0.037 A 
BRANCH  27  28
ATOM     28  N   UNL     1      14.368  57.218   5.317  1.00  0.00    -0.368 N 
ATOM     29  C   UNL     1      14.531  58.109   6.476  1.00  0.00    +0.138 C 
ATOM     30  C   UNL     1      13.656  57.764   4.144  1.00  0.00    +0.138 C 
ATOM     31  C   UNL     1      13.322  59.050   6.635  1.00  0.00    +0.141 C 
ATOM     32  C   UNL     1      13.576  59.302   4.174  1.00  0.00    +0.141 C 
ATOM     33  N   UNL     1      13.014  59.817   5.424  1.00  0.00    -0.339 N 
ATOM     34  C   UNL     1      12.239  60.963   5.397  1.00  0.00    +0.219 C 
ATOM     35  O   UNL     1      12.041  61.607   4.368  1.00  0.00    -0.275 OA
ATOM     36  C   UNL     1      11.639  61.411   6.706  1.00  0.00    +0.114 C 
ENDBRANCH  27  28
ENDBRANCH  21  22
ENDBRANCH   1  21
TORSDOF 7
ENDMDL
MODEL 7
REMARK VINA RESULT:    -6.449      5.656     11.255
REMARK INTER + INTRA:         -10.264
REMARK INTER:                  -8.994
REMARK INTRA:                  -1.270
REMARK UNBOUND:                -1.175
REMARK SMILES CC(=O)N1CCN(c2ccc(OC[C@H]3CO[C@](Cn4ccnc4)(c4ccc(Cl)cc4Cl)O3)cc2)CC1
REMARK SMILES IDX 13 1 14 2 17 3 32 4 16 5 15 6 24 7 30 8 29 9 25 10 27 11
REMARK SMILES IDX 26 12 31 13 28 14 18 15 19 16 20 17 23 18 21 19 22 20 12 21
REMARK SMILES IDX 11 22 10 23 33 24 9 25 34 26 8 27 7 28 6 29 35 30 5 31 36 32
REMARK SMILES IDX 4 33 2 34 3 35 1 36
REMARK H PARENT
ROOT
ATOM      1  C   UNL     1      10.222  56.880  -2.644  1.00  0.00    +0.264 C 
ENDROOT
BRANCH   1   2
ATOM      2  C   UNL     1      11.154  56.587  -1.472  1.00  0.00    +0.185 C 
ATOM      3  C   UNL     1      13.310  56.818  -0.755  1.00  0.00    +0.215 C 
ATOM      4  O   UNL     1      12.252  57.508  -1.437  1.00  0.00    -0.335 OA
ATOM      5  O   UNL     1      13.013  55.399  -0.772  1.00  0.00    -0.342 OA
ATOM      6  C   UNL     1      11.848  55.257  -1.590  1.00  0.00    +0.200 C 
BRANCH   3   7
ATOM      7  C   UNL     1      13.379  57.297   0.703  1.00  0.00    +0.032 A 
ATOM      8  C   UNL     1      13.242  58.651   1.079  1.00  0.00    +0.051 A 
ATOM      9  C   UNL     1      13.313  59.038   2.425  1.00  0.00    +0.041 A 
ATOM     10  C   UNL     1      13.607  56.360   1.736  1.00  0.00    +0.012 A 
ATOM     11  C   UNL     1      13.528  58.086   3.414  1.00  0.00    +0.042 A 
ATOM     12  C   UNL     1      13.679  56.749   3.076  1.00  0.00    +0.021 A 
ATOM     13 Cl   UNL     1      13.003  59.930  -0.061  1.00  0.00    -0.084 Cl
ATOM     14 Cl   UNL     1      13.616  58.568   5.063  1.00  0.00    -0.084 Cl
ENDBRANCH   3   7
BRANCH   3  15
ATOM     15  C   UNL     1      14.669  57.052  -1.454  1.00  0.00    +0.194 C 
BRANCH  15  16
ATOM     16  N   UNL     1      14.544  57.354  -2.870  1.00  0.00    -0.332 N 
ATOM     17  C   UNL     1      14.572  58.596  -3.440  1.00  0.00    +0.107 A 
ATOM     18  C   UNL     1      14.401  56.440  -3.874  1.00  0.00    +0.199 A 
ATOM     19  C   UNL     1      14.420  58.370  -4.788  1.00  0.00    +0.130 A 
ATOM     20  N   UNL     1      14.306  57.028  -5.045  1.00  0.00    -0.245 NA
ENDBRANCH  15  16
ENDBRANCH   3  15
ENDBRANCH   1   2
BRANCH   1  21
ATOM     21  O   UNL     1      10.998  57.458  -3.698  1.00  0.00    -0.491 OA
BRANCH  21  22
ATOM     22  C   UNL     1      10.462  58.535  -4.344  1.00  0.00    +0.119 A 
ATOM     23  C   UNL     1       9.163  58.354  -4.807  1.00  0.00    +0.048 A 
ATOM     24  C   UNL     1      11.087  59.755  -4.573  1.00  0.00    +0.048 A 
ATOM     25  C   UNL     1       8.495  59.380  -5.490  1.00  0.00    +0.030 A 
ATOM     26  C   UNL     1      10.409  60.777  -5.256  1.00  0.00    +0.030 A 
ATOM     27  C   UNL     1       9.096  60.623  -5.731  1.00  0.00    +0.037 A 
BRANCH  27  28
ATOM     28  N   UNL     1       8.446  61.644  -6.411  1.00  0.00    -0.368 N 
ATOM     29  C   UNL     1       7.168  61.416  -7.102  1.00  0.00    +0.138 C 
ATOM     30  C   UNL     1       8.870  63.046  -6.225  1.00  0.00    +0.138 C 
ATOM     31  C   UNL     1       6.919  62.482  -8.186  1.00  0.00    +0.141 C 
ATOM     32  C   UNL     1       7.705  64.036  -6.411  1.00  0.00    +0.141 C 
ATOM     33  N   UNL     1       7.005  63.857  -7.684  1.00  0.00    -0.339 N 
ATOM     34  C   UNL     1       6.484  64.963  -8.331  1.00  0.00    +0.219 C 
ATOM     35  O   UNL     1       6.535  66.097  -7.856  1.00  0.00    -0.275 OA
ATOM     36  C   UNL     1       5.826  64.724  -9.667  1.00  0.00    +0.114 C 
ENDBRANCH  27  28
ENDBRANCH  21  22
ENDBRANCH   1  21
TORSDOF 7
ENDMDL
MODEL 8
REMARK VINA RESULT:    -6.420      6.622      8.957
REMARK INTER + INTRA:         -10.223
REMARK INTER:                  -9.630
REMARK INTRA:                  -0.592
REMARK UNBOUND:                -1.175
REMARK SMILES CC(=O)N1CCN(c2ccc(OC[C@H]3CO[C@](Cn4ccnc4)(c4ccc(Cl)cc4Cl)O3)cc2)CC1
REMARK SMILES IDX 13 1 14 2 17 3 32 4 16 5 15 6 24 7 30 8 29 9 25 10 27 11
REMARK SMILES IDX 26 12 31 13 28 14 18 15 19 16 20 17 23 18 21 19 22 20 12 21
REMARK SMILES IDX 11 22 10 23 33 24 9 25 34 26 8 27 7 28 6 29 35 30 5 31 36 32
REMARK SMILES IDX 4 33 2 34 3 35 1 36
REMARK H PARENT
ROOT
ATOM      1  C   UNL     1      15.271  57.352   2.699  1.00  0.00    +0.264 C 
ENDROOT
BRANCH   1   2
ATOM      2  C   UNL     1      14.277  56.867   1.648  1.00  0.00    +0.185 C 
ATOM      3  C   UNL     1      13.626  57.167  -0.520  1.00  0.00    +0.215 C 
ATOM      4  O   UNL     1      14.784  57.067   0.322  1.00  0.00    -0.335 OA
ATOM      5  O   UNL     1      12.478  57.457   0.317  1.00  0.00    -0.342 OA
ATOM      6  C   UNL     1      13.000  57.664   1.632  1.00  0.00    +0.200 C 
BRANCH   3   7
ATOM      7  C   UNL     1      13.396  55.828  -1.238  1.00  0.00    +0.032 A 
ATOM      8  C   UNL     1      12.134  55.412  -1.713  1.00  0.00    +0.051 A 
ATOM      9  C   UNL     1      11.975  54.179  -2.362  1.00  0.00    +0.041 A 
ATOM     10  C   UNL     1      14.481  54.943  -1.427  1.00  0.00    +0.012 A 
ATOM     11  C   UNL     1      13.068  53.340  -2.540  1.00  0.00    +0.042 A 
ATOM     12  C   UNL     1      14.321  53.714  -2.073  1.00  0.00    +0.021 A 
ATOM     13 Cl   UNL     1      10.694  56.353  -1.523  1.00  0.00    -0.084 Cl
ATOM     14 Cl   UNL     1      12.867  51.828  -3.334  1.00  0.00    -0.084 Cl
ENDBRANCH   3   7
BRANCH   3  15
ATOM     15  C   UNL     1      13.788  58.302  -1.557  1.00  0.00    +0.194 C 
BRANCH  15  16
ATOM     16  N   UNL     1      13.375  59.603  -1.057  1.00  0.00    -0.332 N 
ATOM     17  C   UNL     1      12.180  60.221  -1.298  1.00  0.00    +0.107 A 
ATOM     18  C   UNL     1      14.105  60.415  -0.239  1.00  0.00    +0.199 A 
ATOM     19  C   UNL     1      12.255  61.414  -0.617  1.00  0.00    +0.130 A 
ATOM     20  N   UNL     1      13.459  61.528   0.029  1.00  0.00    -0.245 NA
ENDBRANCH  15  16
ENDBRANCH   3  15
ENDBRANCH   1   2
BRANCH   1  21
ATOM     21  O   UNL     1      14.844  56.867   3.976  1.00  0.00    -0.491 OA
BRANCH  21  22
ATOM     22  C   UNL     1      15.384  55.687   4.403  1.00  0.00    +0.119 A 
ATOM     23  C   UNL     1      16.774  55.644   4.400  1.00  0.00    +0.048 A 
ATOM     24  C   UNL     1      14.683  54.564   4.824  1.00  0.00    +0.048 A 
ATOM     25  C   UNL     1      17.458  54.491   4.812  1.00  0.00    +0.030 A 
ATOM     26  C   UNL     1      15.377  53.415   5.238  1.00  0.00    +0.030 A 
ATOM     27  C   UNL     1      16.779  53.344   5.248  1.00  0.00    +0.037 A 
BRANCH  27  28
ATOM     28  N   UNL     1      17.446  52.196   5.653  1.00  0.00    -0.368 N 
ATOM     29  C   UNL     1      18.488  52.236   6.690  1.00  0.00    +0.138 C 
ATOM     30  C   UNL     1      16.935  50.867   5.263  1.00  0.00    +0.138 C 
ATOM     31  C   UNL     1      19.420  51.012   6.595  1.00  0.00    +0.141 C 
ATOM     32  C   UNL     1      17.278  49.783   6.302  1.00  0.00    +0.141 C 
ATOM     33  N   UNL     1      18.707  49.731   6.618  1.00  0.00    -0.339 N 
ATOM     34  C   UNL     1      19.293  48.512   6.907  1.00  0.00    +0.219 C 
ATOM     35  O   UNL     1      18.652  47.463   6.962  1.00  0.00    -0.275 OA
ATOM     36  C   UNL     1      20.779  48.514   7.166  1.00  0.00    +0.114 C 
ENDBRANCH  27  28
ENDBRANCH  21  22
ENDBRANCH   1  21
TORSDOF 7
ENDMDL
MODEL 9
REMARK VINA RESULT:    -6.309      3.724      9.342
REMARK INTER + INTRA:         -10.066
REMARK INTER:                  -8.699
REMARK INTRA:                  -1.367
REMARK UNBOUND:                -1.175
REMARK SMILES CC(=O)N1CCN(c2ccc(OC[C@H]3CO[C@](Cn4ccnc4)(c4ccc(Cl)cc4Cl)O3)cc2)CC1
REMARK SMILES IDX 13 1 14 2 17 3 32 4 16 5 15 6 24 7 30 8 29 9 25 10 27 11
REMARK SMILES IDX 26 12 31 13 28 14 18 15 19 16 20 17 23 18 21 19 22 20 12 21
REMARK SMILES IDX 11 22 10 23 33 24 9 25 34 26 8 27 7 28 6 29 35 30 5 31 36 32
REMARK SMILES IDX 4 33 2 34 3 35 1 36
REMARK H PARENT
ROOT
ATOM      1  C   UNL     1      13.167  47.386  -2.991  1.00  0.00    +0.264 C 
ENDROOT
BRANCH   1   2
ATOM      2  C   UNL     1      11.951  47.589  -3.889  1.00  0.00    +0.185 C 
ATOM      3  C   UNL     1       9.670  47.705  -3.870  1.00  0.00    +0.215 C 
ATOM      4  O   UNL     1      10.842  48.119  -3.151  1.00  0.00    -0.335 OA
ATOM      5  O   UNL     1      10.037  46.610  -4.747  1.00  0.00    -0.342 OA
ATOM      6  C   UNL     1      11.396  46.298  -4.429  1.00  0.00    +0.200 C 
BRANCH   3   7
ATOM      7  C   UNL     1       9.151  48.875  -4.721  1.00  0.00    +0.032 A 
ATOM      8  C   UNL     1       8.197  48.720  -5.749  1.00  0.00    +0.051 A 
ATOM      9  C   UNL     1       7.755  49.819  -6.499  1.00  0.00    +0.041 A 
ATOM     10  C   UNL     1       9.651  50.177  -4.496  1.00  0.00    +0.012 A 
ATOM     11  C   UNL     1       8.262  51.087  -6.241  1.00  0.00    +0.042 A 
ATOM     12  C   UNL     1       9.211  51.272  -5.245  1.00  0.00    +0.021 A 
ATOM     13 Cl   UNL     1       7.517  47.189  -6.186  1.00  0.00    -0.084 Cl
ATOM     14 Cl   UNL     1       7.718  52.432  -7.165  1.00  0.00    -0.084 Cl
ENDBRANCH   3   7
BRANCH   3  15
ATOM     15  C   UNL     1       8.565  47.223  -2.903  1.00  0.00    +0.194 C 
BRANCH  15  16
ATOM     16  N   UNL     1       9.074  46.813  -1.605  1.00  0.00    -0.332 N 
ATOM     17  C   UNL     1       9.023  47.539  -0.448  1.00  0.00    +0.107 A 
ATOM     18  C   UNL     1       9.669  45.618  -1.319  1.00  0.00    +0.199 A 
ATOM     19  C   UNL     1       9.622  46.740   0.498  1.00  0.00    +0.130 A 
ATOM     20  N   UNL     1      10.027  45.553  -0.057  1.00  0.00    -0.245 NA
ENDBRANCH  15  16
ENDBRANCH   3  15
ENDBRANCH   1   2
BRANCH   1  21
ATOM     21  O   UNL     1      14.112  48.422  -3.277  1.00  0.00    -0.491 OA
BRANCH  21  22
ATOM     22  C   UNL     1      13.672  49.711  -3.165  1.00  0.00    +0.119 A 
ATOM     23  C   UNL     1      13.605  50.414  -4.363  1.00  0.00    +0.048 A 
ATOM     24  C   UNL     1      13.301  50.356  -1.992  1.00  0.00    +0.048 A 
ATOM     25  C   UNL     1      13.172  51.747  -4.390  1.00  0.00    +0.030 A 
ATOM     26  C   UNL     1      12.867  51.691  -2.029  1.00  0.00    +0.030 A 
ATOM     27  C   UNL     1      12.786  52.424  -3.225  1.00  0.00    +0.037 A 
BRANCH  27  28
ATOM     28  N   UNL     1      12.361  53.745  -3.240  1.00  0.00    -0.368 N 
ATOM     29  C   UNL     1      11.505  54.267  -4.316  1.00  0.00    +0.138 C 
ATOM     30  C   UNL     1      12.520  54.587  -2.037  1.00  0.00    +0.138 C 
ATOM     31  C   UNL     1      11.603  55.801  -4.416  1.00  0.00    +0.141 C 
ATOM     32  C   UNL     1      11.431  55.672  -1.938  1.00  0.00    +0.141 C 
ATOM     33  N   UNL     1      11.331  56.488  -3.150  1.00  0.00    -0.339 N 
ATOM     34  C   UNL     1      11.001  57.827  -3.039  1.00  0.00    +0.219 C 
ATOM     35  O   UNL     1      10.733  58.359  -1.962  1.00  0.00    -0.275 OA
ATOM     36  C   UNL     1      10.971  58.631  -4.315  1.00  0.00    +0.114 C 
ENDBRANCH  27  28
ENDBRANCH  21  22
ENDBRANCH   1  21
TORSDOF 7
ENDMDL
