MODEL 1
REMARK VINA RESULT:    -7.558      0.000      0.000
REMARK INTER + INTRA:         -11.972
REMARK INTER:                 -10.651
REMARK INTRA:                  -1.321
REMARK UNBOUND:                -1.321
REMARK SMILES CC(=O)N1CCN(c2ccc(OC[C@H]3CO[C@](Cn4ccnc4)(c4ccc(Cl)cc4Cl)O3)cc2)CC1
REMARK SMILES IDX 13 1 14 2 17 3 32 4 16 5 15 6 24 7 30 8 29 9 25 10 27 11
REMARK SMILES IDX 26 12 31 13 28 14 18 15 19 16 20 17 23 18 21 19 22 20 12 21
REMARK SMILES IDX 11 22 10 23 33 24 9 25 34 26 8 27 7 28 6 29 35 30 5 31 36 32
REMARK SMILES IDX 4 33 2 34 3 35 1 36
REMARK H PARENT
ROOT
ATOM      1  C   UNL     1     -20.968   6.250 -12.527  1.00  0.00    +0.264 C 
ENDROOT
BRANCH   1   2
ATOM      2  C   UNL     1     -21.419   4.800 -12.675  1.00  0.00    +0.185 C 
ATOM      3  C   UNL     1     -22.874   3.449 -13.803  1.00  0.00    +0.215 C 
ATOM      4  O   UNL     1     -21.979   4.559 -13.972  1.00  0.00    -0.335 OA
ATOM      5  O   UNL     1     -23.172   3.316 -12.391  1.00  0.00    -0.342 OA
ATOM      6  C   UNL     1     -22.557   4.440 -11.757  1.00  0.00    +0.200 C 
BRANCH   3   7
ATOM      7  C   UNL     1     -22.194   2.162 -14.295  1.00  0.00    +0.032 A 
ATOM      8  C   UNL     1     -21.481   2.079 -15.510  1.00  0.00    +0.051 A 
ATOM      9  C   UNL     1     -20.877   0.881 -15.915  1.00  0.00    +0.041 A 
ATOM     10  C   UNL     1     -22.287   0.984 -13.520  1.00  0.00    +0.012 A 
ATOM     11  C   UNL     1     -20.982  -0.255 -15.121  1.00  0.00    +0.042 A 
ATOM     12  C   UNL     1     -21.687  -0.211 -13.926  1.00  0.00    +0.021 A 
ATOM     13 Cl   UNL     1     -21.308   3.414 -16.598  1.00  0.00    -0.084 Cl
ATOM     14 Cl   UNL     1     -20.241  -1.724 -15.624  1.00  0.00    -0.084 Cl
ENDBRANCH   3   7
BRANCH   3  15
ATOM     15  C   UNL     1     -24.195   3.677 -14.573  1.00  0.00    +0.194 C 
BRANCH  15  16
ATOM     16  N   UNL     1     -24.458   5.077 -14.864  1.00  0.00    -0.332 N 
ATOM     17  C   UNL     1     -24.214   5.719 -16.045  1.00  0.00    +0.107 A 
ATOM     18  C   UNL     1     -25.018   5.980 -14.008  1.00  0.00    +0.199 A 
ATOM     19  C   UNL     1     -24.627   7.014 -15.836  1.00  0.00    +0.130 A 
ATOM     20  N   UNL     1     -25.117   7.167 -14.564  1.00  0.00    -0.245 NA
ENDBRANCH  15  16
ENDBRANCH   3  15
ENDBRANCH   1   2
BRANCH   1  21
ATOM     21  O   UNL     1     -21.737   6.853 -11.481  1.00  0.00    -0.491 OA
BRANCH  21  22
ATOM     22  C   UNL     1     -22.362   8.032 -11.771  1.00  0.00    +0.119 A 
ATOM     23  C   UNL     1     -22.141   8.511 -13.059  1.00  0.00    +0.048 A 
ATOM     24  C   UNL     1     -23.170   8.770 -10.915  1.00  0.00    +0.048 A 
ATOM     25  C   UNL     1     -22.721   9.714 -13.487  1.00  0.00    +0.030 A 
ATOM     26  C   UNL     1     -23.748   9.973 -11.353  1.00  0.00    +0.030 A 
ATOM     27  C   UNL     1     -23.546  10.477 -12.648  1.00  0.00    +0.037 A 
BRANCH  27  28
ATOM     28  N   UNL     1     -24.120  11.672 -13.059  1.00  0.00    -0.368 N 
ATOM     29  C   UNL     1     -24.074  12.105 -14.464  1.00  0.00    +0.138 C 
ATOM     30  C   UNL     1     -25.035  12.403 -12.159  1.00  0.00    +0.138 C 
ATOM     31  C   UNL     1     -24.279  13.627 -14.588  1.00  0.00    +0.141 C 
ATOM     32  C   UNL     1     -26.090  13.214 -12.935  1.00  0.00    +0.141 C 
ATOM     33  N   UNL     1     -25.498  14.108 -13.932  1.00  0.00    -0.339 N 
ATOM     34  C   UNL     1     -26.099  15.327 -14.190  1.00  0.00    +0.219 C 
ATOM     35  O   UNL     1     -27.150  15.677 -13.652  1.00  0.00    -0.275 OA
ATOM     36  C   UNL     1     -25.412  16.231 -15.182  1.00  0.00    +0.114 C 
ENDBRANCH  27  28
ENDBRANCH  21  22
ENDBRANCH   1  21
TORSDOF 7
ENDMDL
MODEL 2
REMARK VINA RESULT:    -7.545      4.095     10.284
REMARK INTER + INTRA:         -11.954
REMARK INTER:                 -11.095
REMARK INTRA:                  -0.859
REMARK UNBOUND:                -1.321
REMARK SMILES CC(=O)N1CCN(c2ccc(OC[C@H]3CO[C@](Cn4ccnc4)(c4ccc(Cl)cc4Cl)O3)cc2)CC1
REMARK SMILES IDX 13 1 14 2 17 3 32 4 16 5 15 6 24 7 30 8 29 9 25 10 27 11
REMARK SMILES IDX 26 12 31 13 28 14 18 15 19 16 20 17 23 18 21 19 22 20 12 21
REMARK SMILES IDX 11 22 10 23 33 24 9 25 34 26 8 27 7 28 6 29 35 30 5 31 36 32
REMARK SMILES IDX 4 33 2 34 3 35 1 36
REMARK H PARENT
ROOT
ATOM      1  C   UNL     1     -23.455   9.831 -11.371  1.00  0.00    +0.264 C 
ENDROOT
BRANCH   1   2
ATOM      2  C   UNL     1     -23.355  11.096 -12.217  1.00  0.00    +0.185 C 
ATOM      3  C   UNL     1     -23.384  11.857 -14.370  1.00  0.00    +0.215 C 
ATOM      4  O   UNL     1     -24.025  10.936 -13.474  1.00  0.00    -0.335 OA
ATOM      5  O   UNL     1     -22.105  12.231 -13.800  1.00  0.00    -0.342 OA
ATOM      6  C   UNL     1     -21.945  11.414 -12.637  1.00  0.00    +0.200 C 
BRANCH   3   7
ATOM      7  C   UNL     1     -24.253  13.116 -14.519  1.00  0.00    +0.032 A 
ATOM      8  C   UNL     1     -23.962  14.152 -15.432  1.00  0.00    +0.051 A 
ATOM      9  C   UNL     1     -24.786  15.282 -15.531  1.00  0.00    +0.041 A 
ATOM     10  C   UNL     1     -25.394  13.276 -13.702  1.00  0.00    +0.012 A 
ATOM     11  C   UNL     1     -25.906  15.400 -14.717  1.00  0.00    +0.042 A 
ATOM     12  C   UNL     1     -26.213  14.404 -13.800  1.00  0.00    +0.021 A 
ATOM     13 Cl   UNL     1     -22.580  14.135 -16.474  1.00  0.00    -0.084 Cl
ATOM     14 Cl   UNL     1     -26.913  16.789 -14.841  1.00  0.00    -0.084 Cl
ENDBRANCH   3   7
BRANCH   3  15
ATOM     15  C   UNL     1     -23.145  11.211 -15.754  1.00  0.00    +0.194 C 
BRANCH  15  16
ATOM     16  N   UNL     1     -21.908  10.452 -15.830  1.00  0.00    -0.332 N 
ATOM     17  C   UNL     1     -21.738   9.141 -15.484  1.00  0.00    +0.107 A 
ATOM     18  C   UNL     1     -20.709  10.919 -16.286  1.00  0.00    +0.199 A 
ATOM     19  C   UNL     1     -20.412   8.878 -15.731  1.00  0.00    +0.130 A 
ATOM     20  N   UNL     1     -19.779   9.992 -16.221  1.00  0.00    -0.245 NA
ENDBRANCH  15  16
ENDBRANCH   3  15
ENDBRANCH   1   2
BRANCH   1  21
ATOM     21  O   UNL     1     -22.212   9.128 -11.469  1.00  0.00    -0.491 OA
BRANCH  21  22
ATOM     22  C   UNL     1     -22.229   7.924 -12.113  1.00  0.00    +0.119 A 
ATOM     23  C   UNL     1     -20.994   7.290 -12.204  1.00  0.00    +0.048 A 
ATOM     24  C   UNL     1     -23.340   7.302 -12.669  1.00  0.00    +0.048 A 
ATOM     25  C   UNL     1     -20.870   6.048 -12.843  1.00  0.00    +0.030 A 
ATOM     26  C   UNL     1     -23.206   6.057 -13.305  1.00  0.00    +0.030 A 
ATOM     27  C   UNL     1     -21.973   5.393 -13.408  1.00  0.00    +0.037 A 
BRANCH  27  28
ATOM     28  N   UNL     1     -21.860   4.166 -14.048  1.00  0.00    -0.368 N 
ATOM     29  C   UNL     1     -22.068   2.900 -13.329  1.00  0.00    +0.138 C 
ATOM     30  C   UNL     1     -21.809   4.102 -15.523  1.00  0.00    +0.138 C 
ATOM     31  C   UNL     1     -21.394   1.723 -14.060  1.00  0.00    +0.141 C 
ATOM     32  C   UNL     1     -22.399   2.789 -16.069  1.00  0.00    +0.141 C 
ATOM     33  N   UNL     1     -21.796   1.600 -15.464  1.00  0.00    -0.339 N 
ATOM     34  C   UNL     1     -21.636   0.458 -16.228  1.00  0.00    +0.219 C 
ATOM     35  O   UNL     1     -22.028   0.377 -17.392  1.00  0.00    -0.275 OA
ATOM     36  C   UNL     1     -20.955  -0.715 -15.569  1.00  0.00    +0.114 C 
ENDBRANCH  27  28
ENDBRANCH  21  22
ENDBRANCH   1  21
TORSDOF 7
ENDMDL
MODEL 3
REMARK VINA RESULT:    -7.466      3.896      6.801
REMARK INTER + INTRA:         -11.842
REMARK INTER:                 -10.717
REMARK INTRA:                  -1.125
REMARK UNBOUND:                -1.321
REMARK SMILES CC(=O)N1CCN(c2ccc(OC[C@H]3CO[C@](Cn4ccnc4)(c4ccc(Cl)cc4Cl)O3)cc2)CC1
REMARK SMILES IDX 13 1 14 2 17 3 32 4 16 5 15 6 24 7 30 8 29 9 25 10 27 11
REMARK SMILES IDX 26 12 31 13 28 14 18 15 19 16 20 17 23 18 21 19 22 20 12 21
REMARK SMILES IDX 11 22 10 23 33 24 9 25 34 26 8 27 7 28 6 29 35 30 5 31 36 32
REMARK SMILES IDX 4 33 2 34 3 35 1 36
REMARK H PARENT
ROOT
ATOM      1  C   UNL     1     -21.921  11.725 -15.798  1.00  0.00    +0.264 C 
ENDROOT
BRANCH   1   2
ATOM      2  C   UNL     1     -22.074  10.857 -14.552  1.00  0.00    +0.185 C 
ATOM      3  C   UNL     1     -23.623   9.838 -13.220  1.00  0.00    +0.215 C 
ATOM      4  O   UNL     1     -23.290  10.100 -14.592  1.00  0.00    -0.335 OA
ATOM      5  O   UNL     1     -22.886  10.767 -12.387  1.00  0.00    -0.342 OA
ATOM      6  C   UNL     1     -22.232  11.662 -13.290  1.00  0.00    +0.200 C 
BRANCH   3   7
ATOM      7  C   UNL     1     -23.208   8.403 -12.857  1.00  0.00    +0.032 A 
ATOM      8  C   UNL     1     -23.707   7.262 -13.522  1.00  0.00    +0.051 A 
ATOM      9  C   UNL     1     -23.298   5.973 -13.154  1.00  0.00    +0.041 A 
ATOM     10  C   UNL     1     -22.299   8.186 -11.797  1.00  0.00    +0.012 A 
ATOM     11  C   UNL     1     -22.393   5.800 -12.113  1.00  0.00    +0.042 A 
ATOM     12  C   UNL     1     -21.894   6.901 -11.430  1.00  0.00    +0.021 A 
ATOM     13 Cl   UNL     1     -24.860   7.346 -14.810  1.00  0.00    -0.084 Cl
ATOM     14 Cl   UNL     1     -21.896   4.216 -11.664  1.00  0.00    -0.084 Cl
ENDBRANCH   3   7
BRANCH   3  15
ATOM     15  C   UNL     1     -25.136  10.031 -12.968  1.00  0.00    +0.194 C 
BRANCH  15  16
ATOM     16  N   UNL     1     -25.504  11.412 -12.703  1.00  0.00    -0.332 N 
ATOM     17  C   UNL     1     -25.709  12.390 -13.635  1.00  0.00    +0.107 A 
ATOM     18  C   UNL     1     -25.731  11.957 -11.472  1.00  0.00    +0.199 A 
ATOM     19  C   UNL     1     -26.036  13.509 -12.907  1.00  0.00    +0.130 A 
ATOM     20  N   UNL     1     -26.038  13.232 -11.564  1.00  0.00    -0.245 NA
ENDBRANCH  15  16
ENDBRANCH   3  15
ENDBRANCH   1   2
BRANCH   1  21
ATOM     21  O   UNL     1     -22.338  13.054 -15.471  1.00  0.00    -0.491 OA
BRANCH  21  22
ATOM     22  C   UNL     1     -23.485  13.506 -16.059  1.00  0.00    +0.119 A 
ATOM     23  C   UNL     1     -23.852  14.801 -15.709  1.00  0.00    +0.048 A 
ATOM     24  C   UNL     1     -24.290  12.802 -16.946  1.00  0.00    +0.048 A 
ATOM     25  C   UNL     1     -25.011  15.388 -16.239  1.00  0.00    +0.030 A 
ATOM     26  C   UNL     1     -25.447  13.398 -17.473  1.00  0.00    +0.030 A 
ATOM     27  C   UNL     1     -25.839  14.705 -17.141  1.00  0.00    +0.037 A 
BRANCH  27  28
ATOM     28  N   UNL     1     -26.991  15.274 -17.666  1.00  0.00    -0.368 N 
ATOM     29  C   UNL     1     -27.335  15.140 -19.090  1.00  0.00    +0.138 C 
ATOM     30  C   UNL     1     -28.044  15.783 -16.765  1.00  0.00    +0.138 C 
ATOM     31  C   UNL     1     -28.311  16.245 -19.537  1.00  0.00    +0.141 C 
ATOM     32  C   UNL     1     -29.446  15.690 -17.395  1.00  0.00    +0.141 C 
ATOM     33  N   UNL     1     -29.520  16.326 -18.712  1.00  0.00    -0.339 N 
ATOM     34  C   UNL     1     -30.690  16.958 -19.094  1.00  0.00    +0.219 C 
ATOM     35  O   UNL     1     -31.701  16.966 -18.393  1.00  0.00    -0.275 OA
ATOM     36  C   UNL     1     -30.687  17.646 -20.436  1.00  0.00    +0.114 C 
ENDBRANCH  27  28
ENDBRANCH  21  22
ENDBRANCH   1  21
TORSDOF 7
ENDMDL
MODEL 4
REMARK VINA RESULT:    -7.387      4.128     10.390
REMARK INTER + INTRA:         -11.731
REMARK INTER:                 -10.737
REMARK INTRA:                  -0.994
REMARK UNBOUND:                -1.321
REMARK SMILES CC(=O)N1CCN(c2ccc(OC[C@H]3CO[C@](Cn4ccnc4)(c4ccc(Cl)cc4Cl)O3)cc2)CC1
REMARK SMILES IDX 13 1 14 2 17 3 32 4 16 5 15 6 24 7 30 8 29 9 25 10 27 11
REMARK SMILES IDX 26 12 31 13 28 14 18 15 19 16 20 17 23 18 21 19 22 20 12 21
REMARK SMILES IDX 11 22 10 23 33 24 9 25 34 26 8 27 7 28 6 29 35 30 5 31 36 32
REMARK SMILES IDX 4 33 2 34 3 35 1 36
REMARK H PARENT
ROOT
ATOM      1  C   UNL     1     -21.319  12.936 -17.616  1.00  0.00    +0.264 C 
ENDROOT
BRANCH   1   2
ATOM      2  C   UNL     1     -22.456  13.648 -16.890  1.00  0.00    +0.185 C 
ATOM      3  C   UNL     1     -24.732  13.778 -16.752  1.00  0.00    +0.215 C 
ATOM      4  O   UNL     1     -23.646  12.848 -16.875  1.00  0.00    -0.335 OA
ATOM      5  O   UNL     1     -24.249  15.094 -17.120  1.00  0.00    -0.342 OA
ATOM      6  C   UNL     1     -22.913  14.898 -17.593  1.00  0.00    +0.200 C 
BRANCH   3   7
ATOM      7  C   UNL     1     -25.215  13.813 -15.293  1.00  0.00    +0.032 A 
ATOM      8  C   UNL     1     -25.380  12.654 -14.505  1.00  0.00    +0.051 A 
ATOM      9  C   UNL     1     -25.824  12.737 -13.178  1.00  0.00    +0.041 A 
ATOM     10  C   UNL     1     -25.533  15.052 -14.693  1.00  0.00    +0.012 A 
ATOM     11  C   UNL     1     -26.117  13.975 -12.618  1.00  0.00    +0.042 A 
ATOM     12  C   UNL     1     -25.977  15.134 -13.370  1.00  0.00    +0.021 A 
ATOM     13 Cl   UNL     1     -25.079  11.056 -15.099  1.00  0.00    -0.084 Cl
ATOM     14 Cl   UNL     1     -26.663  14.072 -10.990  1.00  0.00    -0.084 Cl
ENDBRANCH   3   7
BRANCH   3  15
ATOM     15  C   UNL     1     -25.902  13.395 -17.687  1.00  0.00    +0.194 C 
BRANCH  15  16
ATOM     16  N   UNL     1     -26.647  14.542 -18.177  1.00  0.00    -0.332 N 
ATOM     17  C   UNL     1     -26.447  15.193 -19.362  1.00  0.00    +0.107 A 
ATOM     18  C   UNL     1     -27.693  15.148 -17.542  1.00  0.00    +0.199 A 
ATOM     19  C   UNL     1     -27.388  16.196 -19.378  1.00  0.00    +0.130 A 
ATOM     20  N   UNL     1     -28.150  16.164 -18.238  1.00  0.00    -0.245 NA
ENDBRANCH  15  16
ENDBRANCH   3  15
ENDBRANCH   1   2
BRANCH   1  21
ATOM     21  O   UNL     1     -20.376  12.487 -16.638  1.00  0.00    -0.491 OA
BRANCH  21  22
ATOM     22  C   UNL     1     -20.691  11.350 -15.948  1.00  0.00    +0.119 A 
ATOM     23  C   UNL     1     -20.292  10.165 -16.557  1.00  0.00    +0.048 A 
ATOM     24  C   UNL     1     -21.358  11.282 -14.731  1.00  0.00    +0.048 A 
ATOM     25  C   UNL     1     -20.555   8.925 -15.958  1.00  0.00    +0.030 A 
ATOM     26  C   UNL     1     -21.615  10.036 -14.137  1.00  0.00    +0.030 A 
ATOM     27  C   UNL     1     -21.220   8.825 -14.728  1.00  0.00    +0.037 A 
BRANCH  27  28
ATOM     28  N   UNL     1     -21.491   7.602 -14.128  1.00  0.00    -0.368 N 
ATOM     29  C   UNL     1     -22.308   7.507 -12.909  1.00  0.00    +0.138 C 
ATOM     30  C   UNL     1     -21.209   6.345 -14.850  1.00  0.00    +0.138 C 
ATOM     31  C   UNL     1     -22.038   6.191 -12.155  1.00  0.00    +0.141 C 
ATOM     32  C   UNL     1     -22.165   5.210 -14.437  1.00  0.00    +0.141 C 
ATOM     33  N   UNL     1     -22.200   4.996 -12.989  1.00  0.00    -0.339 N 
ATOM     34  C   UNL     1     -22.373   3.714 -12.498  1.00  0.00    +0.219 C 
ATOM     35  O   UNL     1     -22.552   2.741 -13.229  1.00  0.00    -0.275 OA
ATOM     36  C   UNL     1     -22.341   3.547 -10.999  1.00  0.00    +0.114 C 
ENDBRANCH  27  28
ENDBRANCH  21  22
ENDBRANCH   1  21
TORSDOF 7
ENDMDL
MODEL 5
REMARK VINA RESULT:    -7.368      8.768     13.135
REMARK INTER + INTRA:         -11.704
REMARK INTER:                 -10.959
REMARK INTRA:                  -0.745
REMARK UNBOUND:                -1.321
REMARK SMILES CC(=O)N1CCN(c2ccc(OC[C@H]3CO[C@](Cn4ccnc4)(c4ccc(Cl)cc4Cl)O3)cc2)CC1
REMARK SMILES IDX 13 1 14 2 17 3 32 4 16 5 15 6 24 7 30 8 29 9 25 10 27 11
REMARK SMILES IDX 26 12 31 13 28 14 18 15 19 16 20 17 23 18 21 19 22 20 12 21
REMARK SMILES IDX 11 22 10 23 33 24 9 25 34 26 8 27 7 28 6 29 35 30 5 31 36 32
REMARK SMILES IDX 4 33 2 34 3 35 1 36
REMARK H PARENT
ROOT
ATOM      1  C   UNL     1     -20.833  13.807 -20.163  1.00  0.00    +0.264 C 
ENDROOT
BRANCH   1   2
ATOM      2  C   UNL     1     -19.536  14.432 -20.667  1.00  0.00    +0.185 C 
ATOM      3  C   UNL     1     -18.646  16.366 -21.493  1.00  0.00    +0.215 C 
ATOM      4  O   UNL     1     -19.545  15.856 -20.497  1.00  0.00    -0.335 OA
ATOM      5  O   UNL     1     -18.449  15.340 -22.497  1.00  0.00    -0.342 OA
ATOM      6  C   UNL     1     -19.349  14.283 -22.153  1.00  0.00    +0.200 C 
BRANCH   3   7
ATOM      7  C   UNL     1     -17.293  16.695 -20.842  1.00  0.00    +0.032 A 
ATOM      8  C   UNL     1     -17.149  17.613 -19.780  1.00  0.00    +0.051 A 
ATOM      9  C   UNL     1     -15.892  17.880 -19.220  1.00  0.00    +0.041 A 
ATOM     10  C   UNL     1     -16.118  16.077 -21.325  1.00  0.00    +0.012 A 
ATOM     11  C   UNL     1     -14.759  17.244 -19.714  1.00  0.00    +0.042 A 
ATOM     12  C   UNL     1     -14.865  16.345 -20.767  1.00  0.00    +0.021 A 
ATOM     13 Cl   UNL     1     -18.477  18.490 -19.100  1.00  0.00    -0.084 Cl
ATOM     14 Cl   UNL     1     -13.219  17.577 -19.025  1.00  0.00    -0.084 Cl
ENDBRANCH   3   7
BRANCH   3  15
ATOM     15  C   UNL     1     -19.227  17.627 -22.173  1.00  0.00    +0.194 C 
BRANCH  15  16
ATOM     16  N   UNL     1     -18.292  18.277 -23.076  1.00  0.00    -0.332 N 
ATOM     17  C   UNL     1     -17.927  17.838 -24.318  1.00  0.00    +0.107 A 
ATOM     18  C   UNL     1     -17.639  19.452 -22.843  1.00  0.00    +0.199 A 
ATOM     19  C   UNL     1     -17.035  18.779 -24.777  1.00  0.00    +0.130 A 
ATOM     20  N   UNL     1     -16.856  19.772 -23.849  1.00  0.00    -0.245 NA
ENDBRANCH  15  16
ENDBRANCH   3  15
ENDBRANCH   1   2
BRANCH   1  21
ATOM     21  O   UNL     1     -21.293  14.571 -19.044  1.00  0.00    -0.491 OA
BRANCH  21  22
ATOM     22  C   UNL     1     -21.602  13.881 -17.906  1.00  0.00    +0.119 A 
ATOM     23  C   UNL     1     -20.730  12.844 -17.594  1.00  0.00    +0.048 A 
ATOM     24  C   UNL     1     -22.682  14.120 -17.064  1.00  0.00    +0.048 A 
ATOM     25  C   UNL     1     -20.933  12.053 -16.454  1.00  0.00    +0.030 A 
ATOM     26  C   UNL     1     -22.875  13.324 -15.924  1.00  0.00    +0.030 A 
ATOM     27  C   UNL     1     -22.009  12.273 -15.583  1.00  0.00    +0.037 A 
BRANCH  27  28
ATOM     28  N   UNL     1     -22.222  11.493 -14.455  1.00  0.00    -0.368 N 
ATOM     29  C   UNL     1     -23.469  11.585 -13.679  1.00  0.00    +0.138 C 
ATOM     30  C   UNL     1     -21.332  10.351 -14.165  1.00  0.00    +0.138 C 
ATOM     31  C   UNL     1     -23.276  11.061 -12.244  1.00  0.00    +0.141 C 
ATOM     32  C   UNL     1     -22.057   9.227 -13.400  1.00  0.00    +0.141 C 
ATOM     33  N   UNL     1     -22.723   9.704 -12.186  1.00  0.00    -0.339 N 
ATOM     34  C   UNL     1     -22.787   8.877 -11.080  1.00  0.00    +0.219 C 
ATOM     35  O   UNL     1     -22.352   7.726 -11.084  1.00  0.00    -0.275 OA
ATOM     36  C   UNL     1     -23.432   9.444  -9.840  1.00  0.00    +0.114 C 
ENDBRANCH  27  28
ENDBRANCH  21  22
ENDBRANCH   1  21
TORSDOF 7
ENDMDL
MODEL 6
REMARK VINA RESULT:    -7.356      4.738      6.690
REMARK INTER + INTRA:         -11.687
REMARK INTER:                 -10.641
REMARK INTRA:                  -1.046
REMARK UNBOUND:                -1.321
REMARK SMILES CC(=O)N1CCN(c2ccc(OC[C@H]3CO[C@](Cn4ccnc4)(c4ccc(Cl)cc4Cl)O3)cc2)CC1
REMARK SMILES IDX 13 1 14 2 17 3 32 4 16 5 15 6 24 7 30 8 29 9 25 10 27 11
REMARK SMILES IDX 26 12 31 13 28 14 18 15 19 16 20 17 23 18 21 19 22 20 12 21
REMARK SMILES IDX 11 22 10 23 33 24 9 25 34 26 8 27 7 28 6 29 35 30 5 31 36 32
REMARK SMILES IDX 4 33 2 34 3 35 1 36
REMARK H PARENT
ROOT
ATOM      1  C   UNL     1     -20.110  11.142 -15.648  1.00  0.00    +0.264 C 
ENDROOT
BRANCH   1   2
ATOM      2  C   UNL     1     -21.106  10.022 -15.366  1.00  0.00    +0.185 C 
ATOM      3  C   UNL     1     -22.045   8.799 -13.681  1.00  0.00    +0.215 C 
ATOM      4  O   UNL     1     -21.651  10.131 -14.044  1.00  0.00    -0.335 OA
ATOM      5  O   UNL     1     -21.367   7.868 -14.561  1.00  0.00    -0.342 OA
ATOM      6  C   UNL     1     -20.469   8.659 -15.345  1.00  0.00    +0.200 C 
BRANCH   3   7
ATOM      7  C   UNL     1     -23.563   8.646 -13.864  1.00  0.00    +0.032 A 
ATOM      8  C   UNL     1     -24.463   9.731 -13.802  1.00  0.00    +0.051 A 
ATOM      9  C   UNL     1     -25.840   9.539 -13.975  1.00  0.00    +0.041 A 
ATOM     10  C   UNL     1     -24.112   7.363 -14.088  1.00  0.00    +0.012 A 
ATOM     11  C   UNL     1     -26.344   8.264 -14.204  1.00  0.00    +0.042 A 
ATOM     12  C   UNL     1     -25.486   7.174 -14.258  1.00  0.00    +0.021 A 
ATOM     13 Cl   UNL     1     -23.962  11.358 -13.491  1.00  0.00    -0.084 Cl
ATOM     14 Cl   UNL     1     -28.035   8.035 -14.414  1.00  0.00    -0.084 Cl
ENDBRANCH   3   7
BRANCH   3  15
ATOM     15  C   UNL     1     -21.653   8.481 -12.219  1.00  0.00    +0.194 C 
BRANCH  15  16
ATOM     16  N   UNL     1     -22.022   9.530 -11.283  1.00  0.00    -0.332 N 
ATOM     17  C   UNL     1     -23.099   9.523 -10.442  1.00  0.00    +0.107 A 
ATOM     18  C   UNL     1     -21.337  10.691 -11.071  1.00  0.00    +0.199 A 
ATOM     19  C   UNL     1     -23.024  10.715  -9.761  1.00  0.00    +0.130 A 
ATOM     20  N   UNL     1     -21.930  11.437 -10.167  1.00  0.00    -0.245 NA
ENDBRANCH  15  16
ENDBRANCH   3  15
ENDBRANCH   1   2
BRANCH   1  21
ATOM     21  O   UNL     1     -20.520  11.814 -16.844  1.00  0.00    -0.491 OA
BRANCH  21  22
ATOM     22  C   UNL     1     -21.734  12.438 -16.819  1.00  0.00    +0.119 A 
ATOM     23  C   UNL     1     -22.622  12.033 -17.810  1.00  0.00    +0.048 A 
ATOM     24  C   UNL     1     -22.142  13.415 -15.919  1.00  0.00    +0.048 A 
ATOM     25  C   UNL     1     -23.903  12.596 -17.901  1.00  0.00    +0.030 A 
ATOM     26  C   UNL     1     -23.427  13.971 -16.016  1.00  0.00    +0.030 A 
ATOM     27  C   UNL     1     -24.345  13.578 -17.004  1.00  0.00    +0.037 A 
BRANCH  27  28
ATOM     28  N   UNL     1     -25.609  14.146 -17.088  1.00  0.00    -0.368 N 
ATOM     29  C   UNL     1     -26.748  13.408 -17.654  1.00  0.00    +0.138 C 
ATOM     30  C   UNL     1     -25.910  15.394 -16.358  1.00  0.00    +0.138 C 
ATOM     31  C   UNL     1     -27.858  14.367 -18.125  1.00  0.00    +0.141 C 
ATOM     32  C   UNL     1     -27.393  15.489 -15.955  1.00  0.00    +0.141 C 
ATOM     33  N   UNL     1     -28.303  15.302 -17.086  1.00  0.00    -0.339 N 
ATOM     34  C   UNL     1     -29.496  16.001 -17.119  1.00  0.00    +0.219 C 
ATOM     35  O   UNL     1     -29.857  16.743 -16.205  1.00  0.00    -0.275 OA
ATOM     36  C   UNL     1     -30.364  15.813 -18.337  1.00  0.00    +0.114 C 
ENDBRANCH  27  28
ENDBRANCH  21  22
ENDBRANCH   1  21
TORSDOF 7
ENDMDL
MODEL 7
REMARK VINA RESULT:    -7.356      5.007      8.295
REMARK INTER + INTRA:         -11.687
REMARK INTER:                 -11.589
REMARK INTRA:                  -0.098
REMARK UNBOUND:                -1.321
REMARK SMILES CC(=O)N1CCN(c2ccc(OC[C@H]3CO[C@](Cn4ccnc4)(c4ccc(Cl)cc4Cl)O3)cc2)CC1
REMARK SMILES IDX 13 1 14 2 17 3 32 4 16 5 15 6 24 7 30 8 29 9 25 10 27 11
REMARK SMILES IDX 26 12 31 13 28 14 18 15 19 16 20 17 23 18 21 19 22 20 12 21
REMARK SMILES IDX 11 22 10 23 33 24 9 25 34 26 8 27 7 28 6 29 35 30 5 31 36 32
REMARK SMILES IDX 4 33 2 34 3 35 1 36
REMARK H PARENT
ROOT
ATOM      1  C   UNL     1     -21.244  12.550 -16.352  1.00  0.00    +0.264 C 
ENDROOT
BRANCH   1   2
ATOM      2  C   UNL     1     -22.104  12.192 -15.144  1.00  0.00    +0.185 C 
ATOM      3  C   UNL     1     -22.886  10.430 -13.920  1.00  0.00    +0.215 C 
ATOM      4  O   UNL     1     -21.715  10.931 -14.583  1.00  0.00    -0.335 OA
ATOM      5  O   UNL     1     -24.040  11.142 -14.431  1.00  0.00    -0.342 OA
ATOM      6  C   UNL     1     -23.549  11.961 -15.497  1.00  0.00    +0.200 C 
BRANCH   3   7
ATOM      7  C   UNL     1     -22.768  10.687 -12.409  1.00  0.00    +0.032 A 
ATOM      8  C   UNL     1     -23.843  10.517 -11.510  1.00  0.00    +0.051 A 
ATOM      9  C   UNL     1     -23.685  10.765 -10.140  1.00  0.00    +0.041 A 
ATOM     10  C   UNL     1     -21.540  11.133 -11.871  1.00  0.00    +0.012 A 
ATOM     11  C   UNL     1     -22.459  11.193  -9.645  1.00  0.00    +0.042 A 
ATOM     12  C   UNL     1     -21.385  11.381 -10.505  1.00  0.00    +0.021 A 
ATOM     13 Cl   UNL     1     -25.424  10.021 -12.008  1.00  0.00    -0.084 Cl
ATOM     14 Cl   UNL     1     -22.272  11.497  -7.962  1.00  0.00    -0.084 Cl
ENDBRANCH   3   7
BRANCH   3  15
ATOM     15  C   UNL     1     -23.072   8.918 -14.187  1.00  0.00    +0.194 C 
BRANCH  15  16
ATOM     16  N   UNL     1     -21.880   8.134 -13.913  1.00  0.00    -0.332 N 
ATOM     17  C   UNL     1     -21.535   7.575 -12.714  1.00  0.00    +0.107 A 
ATOM     18  C   UNL     1     -20.914   7.802 -14.819  1.00  0.00    +0.199 A 
ATOM     19  C   UNL     1     -20.340   6.937 -12.952  1.00  0.00    +0.130 A 
ATOM     20  N   UNL     1     -19.960   7.092 -14.261  1.00  0.00    -0.245 NA
ENDBRANCH  15  16
ENDBRANCH   3  15
ENDBRANCH   1   2
BRANCH   1  21
ATOM     21  O   UNL     1     -21.289  13.970 -16.528  1.00  0.00    -0.491 OA
BRANCH  21  22
ATOM     22  C   UNL     1     -22.454  14.500 -17.003  1.00  0.00    +0.119 A 
ATOM     23  C   UNL     1     -22.974  13.862 -18.125  1.00  0.00    +0.048 A 
ATOM     24  C   UNL     1     -23.140  15.588 -16.478  1.00  0.00    +0.048 A 
ATOM     25  C   UNL     1     -24.165  14.307 -18.717  1.00  0.00    +0.030 A 
ATOM     26  C   UNL     1     -24.333  16.024 -17.076  1.00  0.00    +0.030 A 
ATOM     27  C   UNL     1     -24.882  15.398 -18.206  1.00  0.00    +0.037 A 
BRANCH  27  28
ATOM     28  N   UNL     1     -26.059  15.850 -18.788  1.00  0.00    -0.368 N 
ATOM     29  C   UNL     1     -26.110  16.272 -20.196  1.00  0.00    +0.138 C 
ATOM     30  C   UNL     1     -27.349  15.653 -18.097  1.00  0.00    +0.138 C 
ATOM     31  C   UNL     1     -27.312  17.198 -20.460  1.00  0.00    +0.141 C 
ATOM     32  C   UNL     1     -28.523  15.517 -19.085  1.00  0.00    +0.141 C 
ATOM     33  N   UNL     1     -28.595  16.625 -20.039  1.00  0.00    -0.339 N 
ATOM     34  C   UNL     1     -29.831  17.065 -20.475  1.00  0.00    +0.219 C 
ATOM     35  O   UNL     1     -30.885  16.529 -20.134  1.00  0.00    -0.275 OA
ATOM     36  C   UNL     1     -29.844  18.248 -21.410  1.00  0.00    +0.114 C 
ENDBRANCH  27  28
ENDBRANCH  21  22
ENDBRANCH   1  21
TORSDOF 7
ENDMDL
MODEL 8
REMARK VINA RESULT:    -7.258      3.155      5.032
REMARK INTER + INTRA:         -11.549
REMARK INTER:                 -10.634
REMARK INTRA:                  -0.915
REMARK UNBOUND:                -1.321
REMARK SMILES CC(=O)N1CCN(c2ccc(OC[C@H]3CO[C@](Cn4ccnc4)(c4ccc(Cl)cc4Cl)O3)cc2)CC1
REMARK SMILES IDX 13 1 14 2 17 3 32 4 16 5 15 6 24 7 30 8 29 9 25 10 27 11
REMARK SMILES IDX 26 12 31 13 28 14 18 15 19 16 20 17 23 18 21 19 22 20 12 21
REMARK SMILES IDX 11 22 10 23 33 24 9 25 34 26 8 27 7 28 6 29 35 30 5 31 36 32
REMARK SMILES IDX 4 33 2 34 3 35 1 36
REMARK H PARENT
ROOT
ATOM      1  C   UNL     1     -20.744   9.648 -15.889  1.00  0.00    +0.264 C 
ENDROOT
BRANCH   1   2
ATOM      2  C   UNL     1     -21.107   8.303 -15.265  1.00  0.00    +0.185 C 
ATOM      3  C   UNL     1     -21.646   7.298 -13.287  1.00  0.00    +0.215 C 
ATOM      4  O   UNL     1     -21.884   8.476 -14.073  1.00  0.00    -0.335 OA
ATOM      5  O   UNL     1     -20.444   6.657 -13.780  1.00  0.00    -0.342 OA
ATOM      6  C   UNL     1     -19.907   7.544 -14.765  1.00  0.00    +0.200 C 
BRANCH   3   7
ATOM      7  C   UNL     1     -22.830   6.330 -13.442  1.00  0.00    +0.032 A 
ATOM      8  C   UNL     1     -22.804   4.997 -12.981  1.00  0.00    +0.051 A 
ATOM      9  C   UNL     1     -23.910   4.152 -13.147  1.00  0.00    +0.041 A 
ATOM     10  C   UNL     1     -24.007   6.766 -14.091  1.00  0.00    +0.012 A 
ATOM     11  C   UNL     1     -25.055   4.620 -13.781  1.00  0.00    +0.042 A 
ATOM     12  C   UNL     1     -25.108   5.922 -14.258  1.00  0.00    +0.021 A 
ATOM     13 Cl   UNL     1     -21.427   4.290 -12.206  1.00  0.00    -0.084 Cl
ATOM     14 Cl   UNL     1     -26.409   3.578 -13.985  1.00  0.00    -0.084 Cl
ENDBRANCH   3   7
BRANCH   3  15
ATOM     15  C   UNL     1     -21.447   7.655 -11.796  1.00  0.00    +0.194 C 
BRANCH  15  16
ATOM     16  N   UNL     1     -22.093   8.898 -11.410  1.00  0.00    -0.332 N 
ATOM     17  C   UNL     1     -21.507  10.131 -11.344  1.00  0.00    +0.107 A 
ATOM     18  C   UNL     1     -23.408   9.045 -11.071  1.00  0.00    +0.199 A 
ATOM     19  C   UNL     1     -22.511  10.979 -10.939  1.00  0.00    +0.130 A 
ATOM     20  N   UNL     1     -23.685  10.292 -10.763  1.00  0.00    -0.245 NA
ENDBRANCH  15  16
ENDBRANCH   3  15
ENDBRANCH   1   2
BRANCH   1  21
ATOM     21  O   UNL     1     -21.030  10.675 -14.935  1.00  0.00    -0.491 OA
BRANCH  21  22
ATOM     22  C   UNL     1     -22.145  11.433 -15.154  1.00  0.00    +0.119 A 
ATOM     23  C   UNL     1     -22.654  11.366 -16.447  1.00  0.00    +0.048 A 
ATOM     24  C   UNL     1     -22.789  12.240 -14.225  1.00  0.00    +0.048 A 
ATOM     25  C   UNL     1     -23.795  12.097 -16.808  1.00  0.00    +0.030 A 
ATOM     26  C   UNL     1     -23.932  12.968 -14.595  1.00  0.00    +0.030 A 
ATOM     27  C   UNL     1     -24.470  12.916 -15.891  1.00  0.00    +0.037 A 
BRANCH  27  28
ATOM     28  N   UNL     1     -25.596  13.649 -16.240  1.00  0.00    -0.368 N 
ATOM     29  C   UNL     1     -26.727  13.032 -16.950  1.00  0.00    +0.138 C 
ATOM     30  C   UNL     1     -25.815  14.990 -15.662  1.00  0.00    +0.138 C 
ATOM     31  C   UNL     1     -27.577  14.091 -17.676  1.00  0.00    +0.141 C 
ATOM     32  C   UNL     1     -27.311  15.334 -15.539  1.00  0.00    +0.141 C 
ATOM     33  N   UNL     1     -28.037  15.173 -16.800  1.00  0.00    -0.339 N 
ATOM     34  C   UNL     1     -29.082  16.030 -17.094  1.00  0.00    +0.219 C 
ATOM     35  O   UNL     1     -29.470  16.898 -16.313  1.00  0.00    -0.275 OA
ATOM     36  C   UNL     1     -29.753  15.855 -18.433  1.00  0.00    +0.114 C 
ENDBRANCH  27  28
ENDBRANCH  21  22
ENDBRANCH   1  21
TORSDOF 7
ENDMDL
MODEL 9
REMARK VINA RESULT:    -7.247      6.799     10.294
REMARK INTER + INTRA:         -11.534
REMARK INTER:                 -10.816
REMARK INTRA:                  -0.718
REMARK UNBOUND:                -1.321
REMARK SMILES CC(=O)N1CCN(c2ccc(OC[C@H]3CO[C@](Cn4ccnc4)(c4ccc(Cl)cc4Cl)O3)cc2)CC1
REMARK SMILES IDX 13 1 14 2 17 3 32 4 16 5 15 6 24 7 30 8 29 9 25 10 27 11
REMARK SMILES IDX 26 12 31 13 28 14 18 15 19 16 20 17 23 18 21 19 22 20 12 21
REMARK SMILES IDX 11 22 10 23 33 24 9 25 34 26 8 27 7 28 6 29 35 30 5 31 36 32
REMARK SMILES IDX 4 33 2 34 3 35 1 36
REMARK H PARENT
ROOT
ATOM      1  C   UNL     1     -21.061  12.292 -16.514  1.00  0.00    +0.264 C 
ENDROOT
BRANCH   1   2
ATOM      2  C   UNL     1     -21.963  12.024 -15.313  1.00  0.00    +0.185 C 
ATOM      3  C   UNL     1     -22.887  10.351 -14.064  1.00  0.00    +0.215 C 
ATOM      4  O   UNL     1     -21.674  10.753 -14.718  1.00  0.00    -0.335 OA
ATOM      5  O   UNL     1     -23.979  11.130 -14.612  1.00  0.00    -0.342 OA
ATOM      6  C   UNL     1     -23.415  11.887 -15.687  1.00  0.00    +0.200 C 
BRANCH   3   7
ATOM      7  C   UNL     1     -22.777  10.635 -12.557  1.00  0.00    +0.032 A 
ATOM      8  C   UNL     1     -23.876  10.569 -11.675  1.00  0.00    +0.051 A 
ATOM      9  C   UNL     1     -23.724  10.838 -10.308  1.00  0.00    +0.041 A 
ATOM     10  C   UNL     1     -21.528  11.000 -12.007  1.00  0.00    +0.012 A 
ATOM     11  C   UNL     1     -22.477  11.184  -9.800  1.00  0.00    +0.042 A 
ATOM     12  C   UNL     1     -21.378  11.270 -10.644  1.00  0.00    +0.021 A 
ATOM     13 Cl   UNL     1     -25.482  10.182 -12.192  1.00  0.00    -0.084 Cl
ATOM     14 Cl   UNL     1     -22.297  11.514  -8.122  1.00  0.00    -0.084 Cl
ENDBRANCH   3   7
BRANCH   3  15
ATOM     15  C   UNL     1     -23.176   8.851 -14.300  1.00  0.00    +0.194 C 
BRANCH  15  16
ATOM     16  N   UNL     1     -22.268   7.970 -13.584  1.00  0.00    -0.332 N 
ATOM     17  C   UNL     1     -22.575   7.201 -12.496  1.00  0.00    +0.107 A 
ATOM     18  C   UNL     1     -20.958   7.745 -13.895  1.00  0.00    +0.199 A 
ATOM     19  C   UNL     1     -21.405   6.550 -12.182  1.00  0.00    +0.130 A 
ATOM     20  N   UNL     1     -20.405   6.903 -13.052  1.00  0.00    -0.245 NA
ENDBRANCH  15  16
ENDBRANCH   3  15
ENDBRANCH   1   2
BRANCH   1  21
ATOM     21  O   UNL     1     -19.743  11.835 -16.193  1.00  0.00    -0.491 OA
BRANCH  21  22
ATOM     22  C   UNL     1     -19.076  11.137 -17.159  1.00  0.00    +0.119 A 
ATOM     23  C   UNL     1     -17.953  10.447 -16.714  1.00  0.00    +0.048 A 
ATOM     24  C   UNL     1     -19.414  11.063 -18.505  1.00  0.00    +0.048 A 
ATOM     25  C   UNL     1     -17.175   9.692 -17.603  1.00  0.00    +0.030 A 
ATOM     26  C   UNL     1     -18.630  10.302 -19.387  1.00  0.00    +0.030 A 
ATOM     27  C   UNL     1     -17.493   9.593 -18.965  1.00  0.00    +0.037 A 
BRANCH  27  28
ATOM     28  N   UNL     1     -16.727   8.853 -19.855  1.00  0.00    -0.368 N 
ATOM     29  C   UNL     1     -15.425   9.338 -20.338  1.00  0.00    +0.138 C 
ATOM     30  C   UNL     1     -17.059   7.439 -20.121  1.00  0.00    +0.138 C 
ATOM     31  C   UNL     1     -15.028   8.654 -21.660  1.00  0.00    +0.141 C 
ATOM     32  C   UNL     1     -15.815   6.608 -20.486  1.00  0.00    +0.141 C 
ATOM     33  N   UNL     1     -15.047   7.189 -21.588  1.00  0.00    -0.339 N 
ATOM     34  C   UNL     1     -14.404   6.352 -22.482  1.00  0.00    +0.219 C 
ATOM     35  O   UNL     1     -14.405   5.127 -22.364  1.00  0.00    -0.275 OA
ATOM     36  C   UNL     1     -13.678   7.007 -23.630  1.00  0.00    +0.114 C 
ENDBRANCH  27  28
ENDBRANCH  21  22
ENDBRANCH   1  21
TORSDOF 7
ENDMDL
