MODEL 1
REMARK VINA RESULT:   -10.432      0.000      0.000
REMARK INTER + INTRA:         -15.292
REMARK INTER:                 -14.700
REMARK INTRA:                  -0.592
REMARK UNBOUND:                -0.592
REMARK SMILES CC(=O)N1CCN(c2ccc(OC[C@H]3CO[C@](Cn4ccnc4)(c4ccc(Cl)cc4Cl)O3)cc2)CC1
REMARK SMILES IDX 13 1 14 2 17 3 32 4 16 5 15 6 24 7 30 8 29 9 25 10 27 11
REMARK SMILES IDX 26 12 31 13 28 14 18 15 19 16 20 17 23 18 21 19 22 20 12 21
REMARK SMILES IDX 11 22 10 23 33 24 9 25 34 26 8 27 7 28 6 29 35 30 5 31 36 32
REMARK SMILES IDX 4 33 2 34 3 35 1 36
REMARK H PARENT
ROOT
ATOM      1  C   UNL     1     -39.323  14.133   7.667  1.00  0.00    +0.264 C 
ENDROOT
BRANCH   1   2
ATOM      2  C   UNL     1     -40.507  15.095   7.696  1.00  0.00    +0.185 C 
ATOM      3  C   UNL     1     -41.513  16.709   8.960  1.00  0.00    +0.215 C 
ATOM      4  O   UNL     1     -40.231  16.234   8.523  1.00  0.00    -0.335 OA
ATOM      5  O   UNL     1     -42.482  15.647   8.769  1.00  0.00    -0.342 OA
ATOM      6  C   UNL     1     -41.728  14.506   8.349  1.00  0.00    +0.200 C 
BRANCH   3   7
ATOM      7  C   UNL     1     -41.928  17.923   8.113  1.00  0.00    +0.032 A 
ATOM      8  C   UNL     1     -43.149  18.608   8.289  1.00  0.00    +0.051 A 
ATOM      9  C   UNL     1     -43.481  19.710   7.490  1.00  0.00    +0.041 A 
ATOM     10  C   UNL     1     -41.070  18.383   7.089  1.00  0.00    +0.012 A 
ATOM     11  C   UNL     1     -42.607  20.142   6.499  1.00  0.00    +0.042 A 
ATOM     12  C   UNL     1     -41.404  19.482   6.292  1.00  0.00    +0.021 A 
ATOM     13 Cl   UNL     1     -44.331  18.147   9.465  1.00  0.00    -0.084 Cl
ATOM     14 Cl   UNL     1     -43.021  21.494   5.520  1.00  0.00    -0.084 Cl
ENDBRANCH   3   7
BRANCH   3  15
ATOM     15  C   UNL     1     -41.483  17.094  10.457  1.00  0.00    +0.194 C 
BRANCH  15  16
ATOM     16  N   UNL     1     -41.788  15.984  11.344  1.00  0.00    -0.332 N 
ATOM     17  C   UNL     1     -40.932  14.986  11.718  1.00  0.00    +0.107 A 
ATOM     18  C   UNL     1     -42.979  15.767  11.974  1.00  0.00    +0.199 A 
ATOM     19  C   UNL     1     -41.669  14.184  12.557  1.00  0.00    +0.130 A 
ATOM     20  N   UNL     1     -42.942  14.673  12.702  1.00  0.00    -0.245 NA
ENDBRANCH  15  16
ENDBRANCH   3  15
ENDBRANCH   1   2
BRANCH   1  21
ATOM     21  O   UNL     1     -39.834  12.798   7.613  1.00  0.00    -0.491 OA
BRANCH  21  22
ATOM     22  C   UNL     1     -39.590  11.996   8.692  1.00  0.00    +0.119 A 
ATOM     23  C   UNL     1     -39.990  10.673   8.541  1.00  0.00    +0.048 A 
ATOM     24  C   UNL     1     -38.996  12.381   9.888  1.00  0.00    +0.048 A 
ATOM     25  C   UNL     1     -39.801   9.743   9.574  1.00  0.00    +0.030 A 
ATOM     26  C   UNL     1     -38.809  11.442  10.915  1.00  0.00    +0.030 A 
ATOM     27  C   UNL     1     -39.200  10.099  10.789  1.00  0.00    +0.037 A 
BRANCH  27  28
ATOM     28  N   UNL     1     -39.014   9.189  11.820  1.00  0.00    -0.368 N 
ATOM     29  C   UNL     1     -37.777   8.402  11.938  1.00  0.00    +0.138 C 
ATOM     30  C   UNL     1     -39.925   9.188  12.982  1.00  0.00    +0.138 C 
ATOM     31  C   UNL     1     -37.997   7.135  12.787  1.00  0.00    +0.141 C 
ATOM     32  C   UNL     1     -39.228   8.708  14.268  1.00  0.00    +0.141 C 
ATOM     33  N   UNL     1     -38.571   7.409  14.108  1.00  0.00    -0.339 N 
ATOM     34  C   UNL     1     -38.534   6.532  15.176  1.00  0.00    +0.219 C 
ATOM     35  O   UNL     1     -38.986   6.815  16.285  1.00  0.00    -0.275 OA
ATOM     36  C   UNL     1     -37.897   5.187  14.933  1.00  0.00    +0.114 C 
ENDBRANCH  27  28
ENDBRANCH  21  22
ENDBRANCH   1  21
TORSDOF 7
ENDMDL
MODEL 2
REMARK VINA RESULT:   -10.412      4.184     10.905
REMARK INTER + INTRA:         -15.264
REMARK INTER:                 -14.567
REMARK INTRA:                  -0.698
REMARK UNBOUND:                -0.592
REMARK SMILES CC(=O)N1CCN(c2ccc(OC[C@H]3CO[C@](Cn4ccnc4)(c4ccc(Cl)cc4Cl)O3)cc2)CC1
REMARK SMILES IDX 13 1 14 2 17 3 32 4 16 5 15 6 24 7 30 8 29 9 25 10 27 11
REMARK SMILES IDX 26 12 31 13 28 14 18 15 19 16 20 17 23 18 21 19 22 20 12 21
REMARK SMILES IDX 11 22 10 23 33 24 9 25 34 26 8 27 7 28 6 29 35 30 5 31 36 32
REMARK SMILES IDX 4 33 2 34 3 35 1 36
REMARK H PARENT
ROOT
ATOM      1  C   UNL     1     -38.575  11.264  10.234  1.00  0.00    +0.264 C 
ENDROOT
BRANCH   1   2
ATOM      2  C   UNL     1     -39.233  10.502  11.380  1.00  0.00    +0.185 C 
ATOM      3  C   UNL     1     -39.150   8.543  12.551  1.00  0.00    +0.215 C 
ATOM      4  O   UNL     1     -38.324   9.564  11.971  1.00  0.00    -0.335 OA
ATOM      5  O   UNL     1     -40.469   8.632  11.957  1.00  0.00    -0.342 OA
ATOM      6  C   UNL     1     -40.364   9.618  10.926  1.00  0.00    +0.200 C 
BRANCH   3   7
ATOM      7  C   UNL     1     -39.267   8.778  14.066  1.00  0.00    +0.032 A 
ATOM      8  C   UNL     1     -38.178   9.167  14.874  1.00  0.00    +0.051 A 
ATOM      9  C   UNL     1     -38.336   9.369  16.252  1.00  0.00    +0.041 A 
ATOM     10  C   UNL     1     -40.511   8.584  14.707  1.00  0.00    +0.012 A 
ATOM     11  C   UNL     1     -39.577   9.179  16.847  1.00  0.00    +0.042 A 
ATOM     12  C   UNL     1     -40.666   8.783  16.082  1.00  0.00    +0.021 A 
ATOM     13 Cl   UNL     1     -36.578   9.404  14.257  1.00  0.00    -0.084 Cl
ATOM     14 Cl   UNL     1     -39.765   9.425  18.539  1.00  0.00    -0.084 Cl
ENDBRANCH   3   7
BRANCH   3  15
ATOM     15  C   UNL     1     -38.571   7.136  12.277  1.00  0.00    +0.194 C 
BRANCH  15  16
ATOM     16  N   UNL     1     -38.569   6.778  10.869  1.00  0.00    -0.332 N 
ATOM     17  C   UNL     1     -39.518   6.040  10.219  1.00  0.00    +0.107 A 
ATOM     18  C   UNL     1     -37.627   7.143   9.951  1.00  0.00    +0.199 A 
ATOM     19  C   UNL     1     -39.084   5.974   8.916  1.00  0.00    +0.130 A 
ATOM     20  N   UNL     1     -37.903   6.655   8.763  1.00  0.00    -0.245 NA
ENDBRANCH  15  16
ENDBRANCH   3  15
ENDBRANCH   1   2
BRANCH   1  21
ATOM     21  O   UNL     1     -39.527  11.385   9.173  1.00  0.00    -0.491 OA
BRANCH  21  22
ATOM     22  C   UNL     1     -39.923  12.648   8.835  1.00  0.00    +0.119 A 
ATOM     23  C   UNL     1     -40.968  13.158   9.598  1.00  0.00    +0.048 A 
ATOM     24  C   UNL     1     -39.387  13.438   7.825  1.00  0.00    +0.048 A 
ATOM     25  C   UNL     1     -41.474  14.443   9.354  1.00  0.00    +0.030 A 
ATOM     26  C   UNL     1     -39.899  14.724   7.590  1.00  0.00    +0.030 A 
ATOM     27  C   UNL     1     -40.951  15.266   8.347  1.00  0.00    +0.037 A 
BRANCH  27  28
ATOM     28  N   UNL     1     -41.448  16.537   8.094  1.00  0.00    -0.368 N 
ATOM     29  C   UNL     1     -41.136  17.251   6.847  1.00  0.00    +0.138 C 
ATOM     30  C   UNL     1     -42.528  17.091   8.935  1.00  0.00    +0.138 C 
ATOM     31  C   UNL     1     -41.331  18.771   7.008  1.00  0.00    +0.141 C 
ATOM     32  C   UNL     1     -43.422  18.077   8.160  1.00  0.00    +0.141 C 
ATOM     33  N   UNL     1     -42.659  19.141   7.505  1.00  0.00    -0.339 N 
ATOM     34  C   UNL     1     -43.213  20.404   7.399  1.00  0.00    +0.219 C 
ATOM     35  O   UNL     1     -44.351  20.666   7.787  1.00  0.00    -0.275 OA
ATOM     36  C   UNL     1     -42.357  21.474   6.769  1.00  0.00    +0.114 C 
ENDBRANCH  27  28
ENDBRANCH  21  22
ENDBRANCH   1  21
TORSDOF 7
ENDMDL
MODEL 3
REMARK VINA RESULT:   -10.380      4.253     11.037
REMARK INTER + INTRA:         -15.220
REMARK INTER:                 -14.817
REMARK INTRA:                  -0.402
REMARK UNBOUND:                -0.592
REMARK SMILES CC(=O)N1CCN(c2ccc(OC[C@H]3CO[C@](Cn4ccnc4)(c4ccc(Cl)cc4Cl)O3)cc2)CC1
REMARK SMILES IDX 13 1 14 2 17 3 32 4 16 5 15 6 24 7 30 8 29 9 25 10 27 11
REMARK SMILES IDX 26 12 31 13 28 14 18 15 19 16 20 17 23 18 21 19 22 20 12 21
REMARK SMILES IDX 11 22 10 23 33 24 9 25 34 26 8 27 7 28 6 29 35 30 5 31 36 32
REMARK SMILES IDX 4 33 2 34 3 35 1 36
REMARK H PARENT
ROOT
ATOM      1  C   UNL     1     -38.462   9.948  11.605  1.00  0.00    +0.264 C 
ENDROOT
BRANCH   1   2
ATOM      2  C   UNL     1     -39.076   9.520  12.934  1.00  0.00    +0.185 C 
ATOM      3  C   UNL     1     -38.941   7.945  14.582  1.00  0.00    +0.215 C 
ATOM      4  O   UNL     1     -38.142   8.773  13.723  1.00  0.00    -0.335 OA
ATOM      5  O   UNL     1     -40.279   7.874  14.030  1.00  0.00    -0.342 OA
ATOM      6  C   UNL     1     -40.215   8.549  12.770  1.00  0.00    +0.200 C 
BRANCH   3   7
ATOM      7  C   UNL     1     -39.010   8.576  15.982  1.00  0.00    +0.032 A 
ATOM      8  C   UNL     1     -40.117   8.424  16.844  1.00  0.00    +0.051 A 
ATOM      9  C   UNL     1     -40.133   9.020  18.113  1.00  0.00    +0.041 A 
ATOM     10  C   UNL     1     -37.935   9.367  16.445  1.00  0.00    +0.012 A 
ATOM     11  C   UNL     1     -39.052   9.783  18.539  1.00  0.00    +0.042 A 
ATOM     12  C   UNL     1     -37.953   9.962  17.709  1.00  0.00    +0.021 A 
ATOM     13 Cl   UNL     1     -41.534   7.528  16.416  1.00  0.00    -0.084 Cl
ATOM     14 Cl   UNL     1     -39.078  10.514  20.095  1.00  0.00    -0.084 Cl
ENDBRANCH   3   7
BRANCH   3  15
ATOM     15  C   UNL     1     -38.360   6.515  14.674  1.00  0.00    +0.194 C 
BRANCH  15  16
ATOM     16  N   UNL     1     -38.129   5.903  13.377  1.00  0.00    -0.332 N 
ATOM     17  C   UNL     1     -39.033   5.182  12.648  1.00  0.00    +0.107 A 
ATOM     18  C   UNL     1     -36.972   5.967  12.656  1.00  0.00    +0.199 A 
ATOM     19  C   UNL     1     -38.358   4.819  11.507  1.00  0.00    +0.130 A 
ATOM     20  N   UNL     1     -37.075   5.304  11.526  1.00  0.00    -0.245 NA
ENDBRANCH  15  16
ENDBRANCH   3  15
ENDBRANCH   1   2
BRANCH   1  21
ATOM     21  O   UNL     1     -39.502   9.990  10.624  1.00  0.00    -0.491 OA
BRANCH  21  22
ATOM     22  C   UNL     1     -39.959  11.223  10.256  1.00  0.00    +0.119 A 
ATOM     23  C   UNL     1     -40.758  11.237   9.117  1.00  0.00    +0.048 A 
ATOM     24  C   UNL     1     -39.699  12.426  10.902  1.00  0.00    +0.048 A 
ATOM     25  C   UNL     1     -41.291  12.438   8.629  1.00  0.00    +0.030 A 
ATOM     26  C   UNL     1     -40.239  13.623  10.406  1.00  0.00    +0.030 A 
ATOM     27  C   UNL     1     -41.052  13.666   9.262  1.00  0.00    +0.037 A 
BRANCH  27  28
ATOM     28  N   UNL     1     -41.570  14.862   8.783  1.00  0.00    -0.368 N 
ATOM     29  C   UNL     1     -42.487  15.681   9.590  1.00  0.00    +0.138 C 
ATOM     30  C   UNL     1     -40.997  15.485   7.573  1.00  0.00    +0.138 C 
ATOM     31  C   UNL     1     -43.318  16.629   8.703  1.00  0.00    +0.141 C 
ATOM     32  C   UNL     1     -41.128  17.020   7.591  1.00  0.00    +0.141 C 
ATOM     33  N   UNL     1     -42.503  17.470   7.822  1.00  0.00    -0.339 N 
ATOM     34  C   UNL     1     -42.948  18.626   7.208  1.00  0.00    +0.219 C 
ATOM     35  O   UNL     1     -42.220  19.332   6.511  1.00  0.00    -0.275 OA
ATOM     36  C   UNL     1     -44.390  19.007   7.435  1.00  0.00    +0.114 C 
ENDBRANCH  27  28
ENDBRANCH  21  22
ENDBRANCH   1  21
TORSDOF 7
ENDMDL
MODEL 4
REMARK VINA RESULT:   -10.284      4.126     10.424
REMARK INTER + INTRA:         -15.085
REMARK INTER:                 -14.239
REMARK INTRA:                  -0.846
REMARK UNBOUND:                -0.592
REMARK SMILES CC(=O)N1CCN(c2ccc(OC[C@H]3CO[C@](Cn4ccnc4)(c4ccc(Cl)cc4Cl)O3)cc2)CC1
REMARK SMILES IDX 13 1 14 2 17 3 32 4 16 5 15 6 24 7 30 8 29 9 25 10 27 11
REMARK SMILES IDX 26 12 31 13 28 14 18 15 19 16 20 17 23 18 21 19 22 20 12 21
REMARK SMILES IDX 11 22 10 23 33 24 9 25 34 26 8 27 7 28 6 29 35 30 5 31 36 32
REMARK SMILES IDX 4 33 2 34 3 35 1 36
REMARK H PARENT
ROOT
ATOM      1  C   UNL     1     -40.294  10.139   9.103  1.00  0.00    +0.264 C 
ENDROOT
BRANCH   1   2
ATOM      2  C   UNL     1     -39.496   9.595  10.283  1.00  0.00    +0.185 C 
ATOM      3  C   UNL     1     -39.293   9.710  12.555  1.00  0.00    +0.215 C 
ATOM      4  O   UNL     1     -40.259   9.646  11.495  1.00  0.00    -0.335 OA
ATOM      5  O   UNL     1     -38.024  10.125  11.989  1.00  0.00    -0.342 OA
ATOM      6  C   UNL     1     -38.294  10.437  10.619  1.00  0.00    +0.200 C 
BRANCH   3   7
ATOM      7  C   UNL     1     -39.128   8.318  13.185  1.00  0.00    +0.032 A 
ATOM      8  C   UNL     1     -38.248   8.053  14.256  1.00  0.00    +0.051 A 
ATOM      9  C   UNL     1     -38.134   6.765  14.796  1.00  0.00    +0.041 A 
ATOM     10  C   UNL     1     -39.870   7.230  12.673  1.00  0.00    +0.012 A 
ATOM     11  C   UNL     1     -38.888   5.720  14.274  1.00  0.00    +0.042 A 
ATOM     12  C   UNL     1     -39.753   5.946  13.212  1.00  0.00    +0.021 A 
ATOM     13 Cl   UNL     1     -37.235   9.261  14.969  1.00  0.00    -0.084 Cl
ATOM     14 Cl   UNL     1     -38.741   4.141  14.940  1.00  0.00    -0.084 Cl
ENDBRANCH   3   7
BRANCH   3  15
ATOM     15  C   UNL     1     -39.717  10.733  13.634  1.00  0.00    +0.194 C 
BRANCH  15  16
ATOM     16  N   UNL     1     -40.598  11.772  13.128  1.00  0.00    -0.332 N 
ATOM     17  C   UNL     1     -40.218  12.911  12.475  1.00  0.00    +0.107 A 
ATOM     18  C   UNL     1     -41.962  11.771  13.199  1.00  0.00    +0.199 A 
ATOM     19  C   UNL     1     -41.393  13.568  12.196  1.00  0.00    +0.130 A 
ATOM     20  N   UNL     1     -42.469  12.855  12.658  1.00  0.00    -0.245 NA
ENDBRANCH  15  16
ENDBRANCH   3  15
ENDBRANCH   1   2
BRANCH   1  21
ATOM     21  O   UNL     1     -39.439  10.998   8.342  1.00  0.00    -0.491 OA
BRANCH  21  22
ATOM     22  C   UNL     1     -39.848  12.291   8.174  1.00  0.00    +0.119 A 
ATOM     23  C   UNL     1     -41.133  12.563   8.632  1.00  0.00    +0.048 A 
ATOM     24  C   UNL     1     -39.112  13.321   7.601  1.00  0.00    +0.048 A 
ATOM     25  C   UNL     1     -41.678  13.850   8.518  1.00  0.00    +0.030 A 
ATOM     26  C   UNL     1     -39.666  14.607   7.494  1.00  0.00    +0.030 A 
ATOM     27  C   UNL     1     -40.959  14.911   7.950  1.00  0.00    +0.037 A 
BRANCH  27  28
ATOM     28  N   UNL     1     -41.491  16.187   7.827  1.00  0.00    -0.368 N 
ATOM     29  C   UNL     1     -41.118  17.073   6.714  1.00  0.00    +0.138 C 
ATOM     30  C   UNL     1     -42.655  16.586   8.645  1.00  0.00    +0.138 C 
ATOM     31  C   UNL     1     -41.391  18.550   7.058  1.00  0.00    +0.141 C 
ATOM     32  C   UNL     1     -43.530  17.637   7.936  1.00  0.00    +0.141 C 
ATOM     33  N   UNL     1     -42.768  18.805   7.491  1.00  0.00    -0.339 N 
ATOM     34  C   UNL     1     -43.367  20.051   7.508  1.00  0.00    +0.219 C 
ATOM     35  O   UNL     1     -44.541  20.220   7.834  1.00  0.00    -0.275 OA
ATOM     36  C   UNL     1     -42.514  21.224   7.095  1.00  0.00    +0.114 C 
ENDBRANCH  27  28
ENDBRANCH  21  22
ENDBRANCH   1  21
TORSDOF 7
ENDMDL
MODEL 5
REMARK VINA RESULT:   -10.275      4.464     11.326
REMARK INTER + INTRA:         -15.071
REMARK INTER:                 -14.687
REMARK INTRA:                  -0.385
REMARK UNBOUND:                -0.592
REMARK SMILES CC(=O)N1CCN(c2ccc(OC[C@H]3CO[C@](Cn4ccnc4)(c4ccc(Cl)cc4Cl)O3)cc2)CC1
REMARK SMILES IDX 13 1 14 2 17 3 32 4 16 5 15 6 24 7 30 8 29 9 25 10 27 11
REMARK SMILES IDX 26 12 31 13 28 14 18 15 19 16 20 17 23 18 21 19 22 20 12 21
REMARK SMILES IDX 11 22 10 23 33 24 9 25 34 26 8 27 7 28 6 29 35 30 5 31 36 32
REMARK SMILES IDX 4 33 2 34 3 35 1 36
REMARK H PARENT
ROOT
ATOM      1  C   UNL     1     -38.762  11.891  10.794  1.00  0.00    +0.264 C 
ENDROOT
BRANCH   1   2
ATOM      2  C   UNL     1     -39.181  10.472  11.166  1.00  0.00    +0.185 C 
ATOM      3  C   UNL     1     -38.863   8.277  10.625  1.00  0.00    +0.215 C 
ATOM      4  O   UNL     1     -38.170   9.521  10.808  1.00  0.00    -0.335 OA
ATOM      5  O   UNL     1     -40.273   8.562  10.449  1.00  0.00    -0.342 OA
ATOM      6  C   UNL     1     -40.375   9.988  10.389  1.00  0.00    +0.200 C 
BRANCH   3   7
ATOM      7  C   UNL     1     -38.682   7.401  11.875  1.00  0.00    +0.032 A 
ATOM      8  C   UNL     1     -37.428   6.918  12.306  1.00  0.00    +0.051 A 
ATOM      9  C   UNL     1     -37.315   6.121  13.453  1.00  0.00    +0.041 A 
ATOM     10  C   UNL     1     -39.813   7.031  12.637  1.00  0.00    +0.012 A 
ATOM     11  C   UNL     1     -38.449   5.787  14.184  1.00  0.00    +0.042 A 
ATOM     12  C   UNL     1     -39.699   6.236  13.780  1.00  0.00    +0.021 A 
ATOM     13 Cl   UNL     1     -35.951   7.238  11.464  1.00  0.00    -0.084 Cl
ATOM     14 Cl   UNL     1     -38.305   4.807  15.591  1.00  0.00    -0.084 Cl
ENDBRANCH   3   7
BRANCH   3  15
ATOM     15  C   UNL     1     -38.344   7.529   9.375  1.00  0.00    +0.194 C 
BRANCH  15  16
ATOM     16  N   UNL     1     -39.408   7.024   8.523  1.00  0.00    -0.332 N 
ATOM     17  C   UNL     1     -39.485   7.145   7.164  1.00  0.00    +0.107 A 
ATOM     18  C   UNL     1     -40.500   6.318   8.940  1.00  0.00    +0.199 A 
ATOM     19  C   UNL     1     -40.656   6.512   6.819  1.00  0.00    +0.130 A 
ATOM     20  N   UNL     1     -41.283   6.010   7.930  1.00  0.00    -0.245 NA
ENDBRANCH  15  16
ENDBRANCH   3  15
ENDBRANCH   1   2
BRANCH   1  21
ATOM     21  O   UNL     1     -38.978  12.067   9.390  1.00  0.00    -0.491 OA
BRANCH  21  22
ATOM     22  C   UNL     1     -39.500  13.263   8.988  1.00  0.00    +0.119 A 
ATOM     23  C   UNL     1     -40.271  13.918   9.944  1.00  0.00    +0.048 A 
ATOM     24  C   UNL     1     -39.334  13.860   7.744  1.00  0.00    +0.048 A 
ATOM     25  C   UNL     1     -40.869  15.154   9.661  1.00  0.00    +0.030 A 
ATOM     26  C   UNL     1     -39.935  15.099   7.471  1.00  0.00    +0.030 A 
ATOM     27  C   UNL     1     -40.714  15.784   8.418  1.00  0.00    +0.037 A 
BRANCH  27  28
ATOM     28  N   UNL     1     -41.306  17.004   8.125  1.00  0.00    -0.368 N 
ATOM     29  C   UNL     1     -41.291  17.560   6.763  1.00  0.00    +0.138 C 
ATOM     30  C   UNL     1     -42.209  17.643   9.103  1.00  0.00    +0.138 C 
ATOM     31  C   UNL     1     -41.512  19.085   6.778  1.00  0.00    +0.141 C 
ATOM     32  C   UNL     1     -43.286  18.509   8.422  1.00  0.00    +0.141 C 
ATOM     33  N   UNL     1     -42.722  19.494   7.498  1.00  0.00    -0.339 N 
ATOM     34  C   UNL     1     -43.338  20.725   7.361  1.00  0.00    +0.219 C 
ATOM     35  O   UNL     1     -44.380  21.016   7.947  1.00  0.00    -0.275 OA
ATOM     36  C   UNL     1     -42.678  21.720   6.439  1.00  0.00    +0.114 C 
ENDBRANCH  27  28
ENDBRANCH  21  22
ENDBRANCH   1  21
TORSDOF 7
ENDMDL
MODEL 6
REMARK VINA RESULT:   -10.141      2.197      4.347
REMARK INTER + INTRA:         -14.883
REMARK INTER:                 -14.163
REMARK INTRA:                  -0.720
REMARK UNBOUND:                -0.592
REMARK SMILES CC(=O)N1CCN(c2ccc(OC[C@H]3CO[C@](Cn4ccnc4)(c4ccc(Cl)cc4Cl)O3)cc2)CC1
REMARK SMILES IDX 13 1 14 2 17 3 32 4 16 5 15 6 24 7 30 8 29 9 25 10 27 11
REMARK SMILES IDX 26 12 31 13 28 14 18 15 19 16 20 17 23 18 21 19 22 20 12 21
REMARK SMILES IDX 11 22 10 23 33 24 9 25 34 26 8 27 7 28 6 29 35 30 5 31 36 32
REMARK SMILES IDX 4 33 2 34 3 35 1 36
REMARK H PARENT
ROOT
ATOM      1  C   UNL     1     -41.150  13.984   7.812  1.00  0.00    +0.264 C 
ENDROOT
BRANCH   1   2
ATOM      2  C   UNL     1     -40.924  14.902   9.010  1.00  0.00    +0.185 C 
ATOM      3  C   UNL     1     -42.000  16.274  10.484  1.00  0.00    +0.215 C 
ATOM      4  O   UNL     1     -42.105  15.009   9.814  1.00  0.00    -0.335 OA
ATOM      5  O   UNL     1     -41.025  17.083   9.779  1.00  0.00    -0.342 OA
ATOM      6  C   UNL     1     -40.668  16.332   8.615  1.00  0.00    +0.200 C 
BRANCH   3   7
ATOM      7  C   UNL     1     -41.519  16.053  11.927  1.00  0.00    +0.032 A 
ATOM      8  C   UNL     1     -41.151  17.107  12.790  1.00  0.00    +0.051 A 
ATOM      9  C   UNL     1     -40.718  16.853  14.098  1.00  0.00    +0.041 A 
ATOM     10  C   UNL     1     -41.411  14.738  12.432  1.00  0.00    +0.012 A 
ATOM     11  C   UNL     1     -40.635  15.546  14.564  1.00  0.00    +0.042 A 
ATOM     12  C   UNL     1     -40.977  14.486  13.736  1.00  0.00    +0.021 A 
ATOM     13 Cl   UNL     1     -41.181  18.772  12.316  1.00  0.00    -0.084 Cl
ATOM     14 Cl   UNL     1     -40.100  15.241  16.170  1.00  0.00    -0.084 Cl
ENDBRANCH   3   7
BRANCH   3  15
ATOM     15  C   UNL     1     -43.357  17.017  10.487  1.00  0.00    +0.194 C 
BRANCH  15  16
ATOM     16  N   UNL     1     -43.732  17.535   9.182  1.00  0.00    -0.332 N 
ATOM     17  C   UNL     1     -43.647  18.835   8.771  1.00  0.00    +0.107 A 
ATOM     18  C   UNL     1     -44.213  16.800   8.137  1.00  0.00    +0.199 A 
ATOM     19  C   UNL     1     -44.110  18.828   7.477  1.00  0.00    +0.130 A 
ATOM     20  N   UNL     1     -44.467  17.560   7.096  1.00  0.00    -0.245 NA
ENDBRANCH  15  16
ENDBRANCH   3  15
ENDBRANCH   1   2
BRANCH   1  21
ATOM     21  O   UNL     1     -39.997  13.150   7.665  1.00  0.00    -0.491 OA
BRANCH  21  22
ATOM     22  C   UNL     1     -39.704  12.307   8.699  1.00  0.00    +0.119 A 
ATOM     23  C   UNL     1     -40.380  11.091   8.673  1.00  0.00    +0.048 A 
ATOM     24  C   UNL     1     -38.819  12.556   9.740  1.00  0.00    +0.048 A 
ATOM     25  C   UNL     1     -40.175  10.134   9.677  1.00  0.00    +0.030 A 
ATOM     26  C   UNL     1     -38.619  11.590  10.740  1.00  0.00    +0.030 A 
ATOM     27  C   UNL     1     -39.284  10.354  10.737  1.00  0.00    +0.037 A 
BRANCH  27  28
ATOM     28  N   UNL     1     -39.078   9.416  11.740  1.00  0.00    -0.368 N 
ATOM     29  C   UNL     1     -37.839   8.625  11.811  1.00  0.00    +0.138 C 
ATOM     30  C   UNL     1     -39.965   9.385  12.920  1.00  0.00    +0.138 C 
ATOM     31  C   UNL     1     -38.044   7.336  12.630  1.00  0.00    +0.141 C 
ATOM     32  C   UNL     1     -39.242   8.870  14.178  1.00  0.00    +0.141 C 
ATOM     33  N   UNL     1     -38.590   7.575  13.970  1.00  0.00    -0.339 N 
ATOM     34  C   UNL     1     -38.533   6.670  15.013  1.00  0.00    +0.219 C 
ATOM     35  O   UNL     1     -38.962   6.924  16.138  1.00  0.00    -0.275 OA
ATOM     36  C   UNL     1     -37.903   5.331  14.722  1.00  0.00    +0.114 C 
ENDBRANCH  27  28
ENDBRANCH  21  22
ENDBRANCH   1  21
TORSDOF 7
ENDMDL
MODEL 7
REMARK VINA RESULT:   -10.024      3.872     10.413
REMARK INTER + INTRA:         -14.717
REMARK INTER:                 -14.107
REMARK INTRA:                  -0.610
REMARK UNBOUND:                -0.592
REMARK SMILES CC(=O)N1CCN(c2ccc(OC[C@H]3CO[C@](Cn4ccnc4)(c4ccc(Cl)cc4Cl)O3)cc2)CC1
REMARK SMILES IDX 13 1 14 2 17 3 32 4 16 5 15 6 24 7 30 8 29 9 25 10 27 11
REMARK SMILES IDX 26 12 31 13 28 14 18 15 19 16 20 17 23 18 21 19 22 20 12 21
REMARK SMILES IDX 11 22 10 23 33 24 9 25 34 26 8 27 7 28 6 29 35 30 5 31 36 32
REMARK SMILES IDX 4 33 2 34 3 35 1 36
REMARK H PARENT
ROOT
ATOM      1  C   UNL     1     -39.859   9.760  10.506  1.00  0.00    +0.264 C 
ENDROOT
BRANCH   1   2
ATOM      2  C   UNL     1     -40.000   9.629  12.019  1.00  0.00    +0.185 C 
ATOM      3  C   UNL     1     -38.891   8.967  13.902  1.00  0.00    +0.215 C 
ATOM      4  O   UNL     1     -38.721   9.677  12.666  1.00  0.00    -0.335 OA
ATOM      5  O   UNL     1     -40.086   8.154  13.800  1.00  0.00    -0.342 OA
ATOM      6  C   UNL     1     -40.532   8.288  12.448  1.00  0.00    +0.200 C 
BRANCH   3   7
ATOM      7  C   UNL     1     -39.066   9.972  15.052  1.00  0.00    +0.032 A 
ATOM      8  C   UNL     1     -39.666   9.640  16.285  1.00  0.00    +0.051 A 
ATOM      9  C   UNL     1     -39.803  10.593  17.303  1.00  0.00    +0.041 A 
ATOM     10  C   UNL     1     -38.631  11.306  14.884  1.00  0.00    +0.012 A 
ATOM     11  C   UNL     1     -39.354  11.894  17.106  1.00  0.00    +0.042 A 
ATOM     12  C   UNL     1     -38.771  12.256  15.899  1.00  0.00    +0.021 A 
ATOM     13 Cl   UNL     1     -40.293   8.066  16.639  1.00  0.00    -0.084 Cl
ATOM     14 Cl   UNL     1     -39.527  13.060  18.357  1.00  0.00    -0.084 Cl
ENDBRANCH   3   7
BRANCH   3  15
ATOM     15  C   UNL     1     -37.682   8.046  14.185  1.00  0.00    +0.194 C 
BRANCH  15  16
ATOM     16  N   UNL     1     -37.156   7.404  12.992  1.00  0.00    -0.332 N 
ATOM     17  C   UNL     1     -37.412   6.127  12.578  1.00  0.00    +0.107 A 
ATOM     18  C   UNL     1     -36.332   7.982  12.069  1.00  0.00    +0.199 A 
ATOM     19  C   UNL     1     -36.700   5.983  11.411  1.00  0.00    +0.130 A 
ATOM     20  N   UNL     1     -36.025   7.139  11.109  1.00  0.00    -0.245 NA
ENDBRANCH  15  16
ENDBRANCH   3  15
ENDBRANCH   1   2
BRANCH   1  21
ATOM     21  O   UNL     1     -38.996  10.867  10.230  1.00  0.00    -0.491 OA
BRANCH  21  22
ATOM     22  C   UNL     1     -39.592  12.059   9.930  1.00  0.00    +0.119 A 
ATOM     23  C   UNL     1     -39.606  12.383   8.578  1.00  0.00    +0.048 A 
ATOM     24  C   UNL     1     -40.164  12.946  10.834  1.00  0.00    +0.048 A 
ATOM     25  C   UNL     1     -40.185  13.580   8.132  1.00  0.00    +0.030 A 
ATOM     26  C   UNL     1     -40.743  14.141  10.378  1.00  0.00    +0.030 A 
ATOM     27  C   UNL     1     -40.774  14.492   9.019  1.00  0.00    +0.037 A 
BRANCH  27  28
ATOM     28  N   UNL     1     -41.345  15.682   8.589  1.00  0.00    -0.368 N 
ATOM     29  C   UNL     1     -40.975  16.293   7.303  1.00  0.00    +0.138 C 
ATOM     30  C   UNL     1     -42.539  16.220   9.271  1.00  0.00    +0.138 C 
ATOM     31  C   UNL     1     -41.303  17.798   7.283  1.00  0.00    +0.141 C 
ATOM     32  C   UNL     1     -43.432  17.041   8.321  1.00  0.00    +0.141 C 
ATOM     33  N   UNL     1     -42.697  18.097   7.623  1.00  0.00    -0.339 N 
ATOM     34  C   UNL     1     -43.337  19.290   7.335  1.00  0.00    +0.219 C 
ATOM     35  O   UNL     1     -44.523  19.487   7.595  1.00  0.00    -0.275 OA
ATOM     36  C   UNL     1     -42.513  20.362   6.668  1.00  0.00    +0.114 C 
ENDBRANCH  27  28
ENDBRANCH  21  22
ENDBRANCH   1  21
TORSDOF 7
ENDMDL
MODEL 8
REMARK VINA RESULT:    -9.968      4.062     10.379
REMARK INTER + INTRA:         -14.638
REMARK INTER:                 -13.864
REMARK INTRA:                  -0.774
REMARK UNBOUND:                -0.592
REMARK SMILES CC(=O)N1CCN(c2ccc(OC[C@H]3CO[C@](Cn4ccnc4)(c4ccc(Cl)cc4Cl)O3)cc2)CC1
REMARK SMILES IDX 13 1 14 2 17 3 32 4 16 5 15 6 24 7 30 8 29 9 25 10 27 11
REMARK SMILES IDX 26 12 31 13 28 14 18 15 19 16 20 17 23 18 21 19 22 20 12 21
REMARK SMILES IDX 11 22 10 23 33 24 9 25 34 26 8 27 7 28 6 29 35 30 5 31 36 32
REMARK SMILES IDX 4 33 2 34 3 35 1 36
REMARK H PARENT
ROOT
ATOM      1  C   UNL     1     -38.720  11.667  14.146  1.00  0.00    +0.264 C 
ENDROOT
BRANCH   1   2
ATOM      2  C   UNL     1     -38.309  10.452  13.319  1.00  0.00    +0.185 C 
ATOM      3  C   UNL     1     -38.618   8.199  13.110  1.00  0.00    +0.215 C 
ATOM      4  O   UNL     1     -39.313   9.430  13.361  1.00  0.00    -0.335 OA
ATOM      5  O   UNL     1     -37.205   8.419  13.347  1.00  0.00    -0.342 OA
ATOM      6  C   UNL     1     -37.100   9.745  13.871  1.00  0.00    +0.200 C 
BRANCH   3   7
ATOM      7  C   UNL     1     -38.822   7.784  11.645  1.00  0.00    +0.032 A 
ATOM      8  C   UNL     1     -38.110   6.730  11.034  1.00  0.00    +0.051 A 
ATOM      9  C   UNL     1     -38.332   6.389   9.692  1.00  0.00    +0.041 A 
ATOM     10  C   UNL     1     -39.748   8.488  10.843  1.00  0.00    +0.012 A 
ATOM     11  C   UNL     1     -39.259   7.098   8.937  1.00  0.00    +0.042 A 
ATOM     12  C   UNL     1     -39.966   8.148   9.505  1.00  0.00    +0.021 A 
ATOM     13 Cl   UNL     1     -36.909   5.796  11.859  1.00  0.00    -0.084 Cl
ATOM     14 Cl   UNL     1     -39.525   6.677   7.291  1.00  0.00    -0.084 Cl
ENDBRANCH   3   7
BRANCH   3  15
ATOM     15  C   UNL     1     -39.114   7.078  14.052  1.00  0.00    +0.194 C 
BRANCH  15  16
ATOM     16  N   UNL     1     -39.626   7.574  15.319  1.00  0.00    -0.332 N 
ATOM     17  C   UNL     1     -40.934   7.595  15.713  1.00  0.00    +0.107 A 
ATOM     18  C   UNL     1     -38.876   8.082  16.341  1.00  0.00    +0.199 A 
ATOM     19  C   UNL     1     -40.916   8.146  16.972  1.00  0.00    +0.130 A 
ATOM     20  N   UNL     1     -39.633   8.453  17.349  1.00  0.00    -0.245 NA
ENDBRANCH  15  16
ENDBRANCH   3  15
ENDBRANCH   1   2
BRANCH   1  21
ATOM     21  O   UNL     1     -40.114  11.904  13.929  1.00  0.00    -0.491 OA
BRANCH  21  22
ATOM     22  C   UNL     1     -40.445  12.912  13.068  1.00  0.00    +0.119 A 
ATOM     23  C   UNL     1     -40.644  12.515  11.750  1.00  0.00    +0.048 A 
ATOM     24  C   UNL     1     -40.591  14.256  13.388  1.00  0.00    +0.048 A 
ATOM     25  C   UNL     1     -40.986  13.450  10.762  1.00  0.00    +0.030 A 
ATOM     26  C   UNL     1     -40.935  15.184  12.392  1.00  0.00    +0.030 A 
ATOM     27  C   UNL     1     -41.147  14.811  11.055  1.00  0.00    +0.037 A 
BRANCH  27  28
ATOM     28  N   UNL     1     -41.479  15.746  10.084  1.00  0.00    -0.368 N 
ATOM     29  C   UNL     1     -40.814  15.763   8.773  1.00  0.00    +0.138 C 
ATOM     30  C   UNL     1     -42.699  16.565  10.232  1.00  0.00    +0.138 C 
ATOM     31  C   UNL     1     -40.943  17.141   8.097  1.00  0.00    +0.141 C 
ATOM     32  C   UNL     1     -43.299  16.964   8.870  1.00  0.00    +0.141 C 
ATOM     33  N   UNL     1     -42.327  17.612   7.988  1.00  0.00    -0.339 N 
ATOM     34  C   UNL     1     -42.751  18.609   7.129  1.00  0.00    +0.219 C 
ATOM     35  O   UNL     1     -43.931  18.946   7.032  1.00  0.00    -0.275 OA
ATOM     36  C   UNL     1     -41.695  19.280   6.287  1.00  0.00    +0.114 C 
ENDBRANCH  27  28
ENDBRANCH  21  22
ENDBRANCH   1  21
TORSDOF 7
ENDMDL
MODEL 9
REMARK VINA RESULT:    -9.956      2.740      4.818
REMARK INTER + INTRA:         -14.622
REMARK INTER:                 -13.766
REMARK INTRA:                  -0.856
REMARK UNBOUND:                -0.592
REMARK SMILES CC(=O)N1CCN(c2ccc(OC[C@H]3CO[C@](Cn4ccnc4)(c4ccc(Cl)cc4Cl)O3)cc2)CC1
REMARK SMILES IDX 13 1 14 2 17 3 32 4 16 5 15 6 24 7 30 8 29 9 25 10 27 11
REMARK SMILES IDX 26 12 31 13 28 14 18 15 19 16 20 17 23 18 21 19 22 20 12 21
REMARK SMILES IDX 11 22 10 23 33 24 9 25 34 26 8 27 7 28 6 29 35 30 5 31 36 32
REMARK SMILES IDX 4 33 2 34 3 35 1 36
REMARK H PARENT
ROOT
ATOM      1  C   UNL     1     -40.867  15.136   7.575  1.00  0.00    +0.264 C 
ENDROOT
BRANCH   1   2
ATOM      2  C   UNL     1     -40.757  15.831   8.929  1.00  0.00    +0.185 C 
ATOM      3  C   UNL     1     -41.994  16.781  10.597  1.00  0.00    +0.215 C 
ATOM      4  O   UNL     1     -41.953  15.660   9.700  1.00  0.00    -0.335 OA
ATOM      5  O   UNL     1     -41.105  17.805  10.086  1.00  0.00    -0.342 OA
ATOM      6  C   UNL     1     -40.654  17.328   8.815  1.00  0.00    +0.200 C 
BRANCH   3   7
ATOM      7  C   UNL     1     -41.509  16.343  11.988  1.00  0.00    +0.032 A 
ATOM      8  C   UNL     1     -41.123  17.255  12.994  1.00  0.00    +0.051 A 
ATOM      9  C   UNL     1     -40.687  16.806  14.248  1.00  0.00    +0.041 A 
ATOM     10  C   UNL     1     -41.416  14.967  12.293  1.00  0.00    +0.012 A 
ATOM     11  C   UNL     1     -40.619  15.444  14.516  1.00  0.00    +0.042 A 
ATOM     12  C   UNL     1     -40.979  14.521  13.543  1.00  0.00    +0.021 A 
ATOM     13 Cl   UNL     1     -41.133  18.971  12.770  1.00  0.00    -0.084 Cl
ATOM     14 Cl   UNL     1     -40.080  14.899  16.056  1.00  0.00    -0.084 Cl
ENDBRANCH   3   7
BRANCH   3  15
ATOM     15  C   UNL     1     -43.423  17.363  10.694  1.00  0.00    +0.194 C 
BRANCH  15  16
ATOM     16  N   UNL     1     -43.884  17.969   9.456  1.00  0.00    -0.332 N 
ATOM     17  C   UNL     1     -44.230  17.309   8.310  1.00  0.00    +0.107 A 
ATOM     18  C   UNL     1     -44.071  19.304   9.239  1.00  0.00    +0.199 A 
ATOM     19  C   UNL     1     -44.598  18.299   7.429  1.00  0.00    +0.130 A 
ATOM     20  N   UNL     1     -44.487  19.535   8.014  1.00  0.00    -0.245 NA
ENDBRANCH  15  16
ENDBRANCH   3  15
ENDBRANCH   1   2
BRANCH   1  21
ATOM     21  O   UNL     1     -41.642  13.945   7.746  1.00  0.00    -0.491 OA
BRANCH  21  22
ATOM     22  C   UNL     1     -40.985  12.836   8.197  1.00  0.00    +0.119 A 
ATOM     23  C   UNL     1     -41.664  12.105   9.166  1.00  0.00    +0.048 A 
ATOM     24  C   UNL     1     -39.734  12.394   7.783  1.00  0.00    +0.048 A 
ATOM     25  C   UNL     1     -41.101  10.945   9.717  1.00  0.00    +0.030 A 
ATOM     26  C   UNL     1     -39.179  11.230   8.339  1.00  0.00    +0.030 A 
ATOM     27  C   UNL     1     -39.844  10.471   9.316  1.00  0.00    +0.037 A 
BRANCH  27  28
ATOM     28  N   UNL     1     -39.275   9.327   9.859  1.00  0.00    -0.368 N 
ATOM     29  C   UNL     1     -38.658   9.334  11.194  1.00  0.00    +0.138 C 
ATOM     30  C   UNL     1     -39.521   8.010   9.237  1.00  0.00    +0.138 C 
ATOM     31  C   UNL     1     -37.663   8.169  11.357  1.00  0.00    +0.141 C 
ATOM     32  C   UNL     1     -39.477   6.864  10.265  1.00  0.00    +0.141 C 
ATOM     33  N   UNL     1     -38.244   6.857  11.055  1.00  0.00    -0.339 N 
ATOM     34  C   UNL     1     -37.705   5.648  11.458  1.00  0.00    +0.219 C 
ATOM     35  O   UNL     1     -38.247   4.568  11.225  1.00  0.00    -0.275 OA
ATOM     36  C   UNL     1     -36.403   5.701  12.217  1.00  0.00    +0.114 C 
ENDBRANCH  27  28
ENDBRANCH  21  22
ENDBRANCH   1  21
TORSDOF 7
ENDMDL
