MODEL 1
REMARK VINA RESULT:    -8.800      0.000      0.000
REMARK INTER + INTRA:         -11.759
REMARK INTER:                 -10.858
REMARK INTRA:                  -0.901
REMARK UNBOUND:                -0.901
REMARK SMILES COC(=O)Nc1nc2ccc(C(=O)c3ccccc3)cc2[nH]1
REMARK SMILES IDX 22 1 7 2 21 3 8 4 11 5 20 6 9 7 10 8 6 9 12 11 13 12 14 13
REMARK SMILES IDX 15 14 19 15 16 16 18 17 17 18 5 19 3 20 4 21 2 23 1 24
REMARK H PARENT 22 10 5 22
ROOT
ATOM      1  N   UNL     1     -27.548   8.215 -23.567  1.00  0.00    -0.324 N 
ATOM      2  N   UNL     1     -28.979   6.719 -22.802  1.00  0.00    -0.213 NA
ATOM      3  C   UNL     1     -28.158   8.814 -22.495  1.00  0.00    +0.068 A 
ATOM      4  C   UNL     1     -29.055   7.856 -22.041  1.00  0.00    +0.091 A 
ATOM      5  C   UNL     1     -28.827  10.345 -20.792  1.00  0.00    +0.025 A 
ATOM      6  C   UNL     1     -28.015  10.072 -21.906  1.00  0.00    +0.040 A 
ATOM      7  C   UNL     1     -29.876   8.149 -20.942  1.00  0.00    +0.031 A 
ATOM      8  C   UNL     1     -29.760   9.405 -20.328  1.00  0.00    +0.014 A 
ATOM      9  C   UNL     1     -28.068   6.953 -23.716  1.00  0.00    +0.210 A 
ATOM     10  H   UNL     1     -26.838   8.633 -24.147  1.00  0.00    +0.170 HD
ENDROOT
BRANCH   5  11
ATOM     11  C   UNL     1     -28.697  11.684 -20.157  1.00  0.00    +0.193 C 
ATOM     12  O   UNL     1     -28.228  11.763 -19.023  1.00  0.00    -0.289 OA
BRANCH  11  13
ATOM     13  C   UNL     1     -29.123  12.923 -20.854  1.00  0.00    +0.022 A 
ATOM     14  C   UNL     1     -28.242  13.990 -21.064  1.00  0.00    +0.012 A 
ATOM     15  C   UNL     1     -30.432  12.992 -21.348  1.00  0.00    +0.012 A 
ATOM     16  C   UNL     1     -28.682  15.133 -21.735  1.00  0.00    +0.001 A 
ATOM     17  C   UNL     1     -30.866  14.137 -22.018  1.00  0.00    +0.001 A 
ATOM     18  C   UNL     1     -29.993  15.207 -22.207  1.00  0.00    +0.000 A 
ENDBRANCH  11  13
ENDBRANCH   5  11
BRANCH   9  19
ATOM     19  N   UNL     1     -27.627   6.133 -24.718  1.00  0.00    -0.261 N 
ATOM     20  C   UNL     1     -26.370   6.213 -25.246  1.00  0.00    +0.413 C 
ATOM     21  O   UNL     1     -25.460   6.973 -24.960  1.00  0.00    -0.224 OA
ATOM     22  H   UNL     1     -28.220   5.424 -25.112  1.00  0.00    +0.176 HD
BRANCH  20  23
ATOM     23  O   UNL     1     -26.272   5.252 -26.210  1.00  0.00    -0.453 OA
ATOM     24  C   UNL     1     -26.914   4.021 -25.869  1.00  0.00    +0.284 C 
ENDBRANCH  20  23
ENDBRANCH   9  19
TORSDOF 4
ENDMDL
MODEL 2
REMARK VINA RESULT:    -8.791     16.878     19.460
REMARK INTER + INTRA:         -11.748
REMARK INTER:                 -11.642
REMARK INTRA:                  -0.106
REMARK UNBOUND:                -0.901
REMARK SMILES COC(=O)Nc1nc2ccc(C(=O)c3ccccc3)cc2[nH]1
REMARK SMILES IDX 22 1 7 2 21 3 8 4 11 5 20 6 9 7 10 8 6 9 12 11 13 12 14 13
REMARK SMILES IDX 15 14 19 15 16 16 18 17 17 18 5 19 3 20 4 21 2 23 1 24
REMARK H PARENT 22 10 5 22
ROOT
ATOM      1  N   UNL     1     -18.480  -8.328 -21.908  1.00  0.00    -0.324 N 
ATOM      2  N   UNL     1     -16.743  -7.492 -20.834  1.00  0.00    -0.213 NA
ATOM      3  C   UNL     1     -18.387  -7.026 -22.329  1.00  0.00    +0.068 A 
ATOM      4  C   UNL     1     -17.295  -6.526 -21.633  1.00  0.00    +0.091 A 
ATOM      5  C   UNL     1     -18.743  -4.931 -23.412  1.00  0.00    +0.025 A 
ATOM      6  C   UNL     1     -19.143  -6.265 -23.223  1.00  0.00    +0.040 A 
ATOM      7  C   UNL     1     -16.920  -5.187 -21.813  1.00  0.00    +0.031 A 
ATOM      8  C   UNL     1     -17.659  -4.392 -22.702  1.00  0.00    +0.014 A 
ATOM      9  C   UNL     1     -17.470  -8.570 -21.011  1.00  0.00    +0.210 A 
ATOM     10  H   UNL     1     -19.175  -8.994 -22.208  1.00  0.00    +0.170 HD
ENDROOT
BRANCH   5  11
ATOM     11  C   UNL     1     -19.542  -4.100 -24.352  1.00  0.00    +0.193 C 
ATOM     12  O   UNL     1     -19.080  -3.030 -24.743  1.00  0.00    -0.289 OA
BRANCH  11  13
ATOM     13  C   UNL     1     -20.883  -4.527 -24.824  1.00  0.00    +0.022 A 
ATOM     14  C   UNL     1     -21.667  -5.430 -24.097  1.00  0.00    +0.012 A 
ATOM     15  C   UNL     1     -21.382  -3.967 -26.006  1.00  0.00    +0.012 A 
ATOM     16  C   UNL     1     -22.928  -5.795 -24.571  1.00  0.00    +0.001 A 
ATOM     17  C   UNL     1     -22.643  -4.335 -26.476  1.00  0.00    +0.001 A 
ATOM     18  C   UNL     1     -23.413  -5.252 -25.761  1.00  0.00    +0.000 A 
ENDBRANCH  11  13
ENDBRANCH   5  11
BRANCH   9  19
ATOM     19  N   UNL     1     -17.330  -9.803 -20.436  1.00  0.00    -0.261 N 
ATOM     20  C   UNL     1     -18.315 -10.398 -19.701  1.00  0.00    +0.413 C 
ATOM     21  O   UNL     1     -19.429  -9.983 -19.425  1.00  0.00    -0.224 OA
ATOM     22  H   UNL     1     -16.481 -10.333 -20.534  1.00  0.00    +0.176 HD
BRANCH  20  23
ATOM     23  O   UNL     1     -17.842 -11.610 -19.290  1.00  0.00    -0.453 OA
ATOM     24  C   UNL     1     -16.603 -11.537 -18.580  1.00  0.00    +0.284 C 
ENDBRANCH  20  23
ENDBRANCH   9  19
TORSDOF 4
ENDMDL
MODEL 3
REMARK VINA RESULT:    -8.781      1.511      2.022
REMARK INTER + INTRA:         -11.736
REMARK INTER:                 -11.021
REMARK INTRA:                  -0.714
REMARK UNBOUND:                -0.901
REMARK SMILES COC(=O)Nc1nc2ccc(C(=O)c3ccccc3)cc2[nH]1
REMARK SMILES IDX 22 1 7 2 21 3 8 4 11 5 20 6 9 7 10 8 6 9 12 11 13 12 14 13
REMARK SMILES IDX 15 14 19 15 16 16 18 17 17 18 5 19 3 20 4 21 2 23 1 24
REMARK H PARENT 22 10 5 22
ROOT
ATOM      1  N   UNL     1     -27.602   8.743 -22.884  1.00  0.00    -0.324 N 
ATOM      2  N   UNL     1     -29.584   8.205 -22.077  1.00  0.00    -0.213 NA
ATOM      3  C   UNL     1     -28.025   9.851 -22.196  1.00  0.00    +0.068 A 
ATOM      4  C   UNL     1     -29.273   9.488 -21.709  1.00  0.00    +0.091 A 
ATOM      5  C   UNL     1     -28.189  12.012 -21.198  1.00  0.00    +0.025 A 
ATOM      6  C   UNL     1     -27.447  11.102 -21.971  1.00  0.00    +0.040 A 
ATOM      7  C   UNL     1     -30.013  10.412 -20.958  1.00  0.00    +0.031 A 
ATOM      8  C   UNL     1     -29.464  11.679 -20.715  1.00  0.00    +0.014 A 
ATOM      9  C   UNL     1     -28.569   7.773 -22.785  1.00  0.00    +0.210 A 
ATOM     10  H   UNL     1     -26.728   8.657 -23.379  1.00  0.00    +0.170 HD
ENDROOT
BRANCH   5  11
ATOM     11  C   UNL     1     -27.595  13.354 -20.957  1.00  0.00    +0.193 C 
ATOM     12  O   UNL     1     -27.020  13.569 -19.891  1.00  0.00    -0.289 OA
BRANCH  11  13
ATOM     13  C   UNL     1     -27.685  14.440 -21.964  1.00  0.00    +0.022 A 
ATOM     14  C   UNL     1     -26.620  14.741 -22.820  1.00  0.00    +0.012 A 
ATOM     15  C   UNL     1     -28.890  15.144 -22.077  1.00  0.00    +0.012 A 
ATOM     16  C   UNL     1     -26.751  15.763 -23.762  1.00  0.00    +0.001 A 
ATOM     17  C   UNL     1     -29.017  16.165 -23.020  1.00  0.00    +0.001 A 
ATOM     18  C   UNL     1     -27.947  16.477 -23.858  1.00  0.00    +0.000 A 
ENDBRANCH  11  13
ENDBRANCH   5  11
BRANCH   9  19
ATOM     19  N   UNL     1     -28.396   6.555 -23.384  1.00  0.00    -0.261 N 
ATOM     20  C   UNL     1     -27.367   6.286 -24.240  1.00  0.00    +0.413 C 
ATOM     21  O   UNL     1     -26.468   7.018 -24.620  1.00  0.00    -0.224 OA
ATOM     22  H   UNL     1     -29.030   5.794 -23.213  1.00  0.00    +0.176 HD
BRANCH  20  23
ATOM     23  O   UNL     1     -27.499   4.988 -24.640  1.00  0.00    -0.453 OA
ATOM     24  C   UNL     1     -26.780   4.673 -25.834  1.00  0.00    +0.284 C 
ENDBRANCH  20  23
ENDBRANCH   9  19
TORSDOF 4
ENDMDL
MODEL 4
REMARK VINA RESULT:    -8.715      2.305      3.350
REMARK INTER + INTRA:         -11.654
REMARK INTER:                 -11.008
REMARK INTRA:                  -0.646
REMARK UNBOUND:                -0.901
REMARK SMILES COC(=O)Nc1nc2ccc(C(=O)c3ccccc3)cc2[nH]1
REMARK SMILES IDX 22 1 7 2 21 3 8 4 11 5 20 6 9 7 10 8 6 9 12 11 13 12 14 13
REMARK SMILES IDX 15 14 19 15 16 16 18 17 17 18 5 19 3 20 4 21 2 23 1 24
REMARK H PARENT 22 10 5 22
ROOT
ATOM      1  N   UNL     1     -28.971   8.810 -22.651  1.00  0.00    -0.324 N 
ATOM      2  N   UNL     1     -27.001   9.729 -23.029  1.00  0.00    -0.213 NA
ATOM      3  C   UNL     1     -29.047  10.067 -22.107  1.00  0.00    +0.068 A 
ATOM      4  C   UNL     1     -27.795  10.615 -22.351  1.00  0.00    +0.091 A 
ATOM      5  C   UNL     1     -29.780  12.056 -21.011  1.00  0.00    +0.025 A 
ATOM      6  C   UNL     1     -30.066  10.747 -21.436  1.00  0.00    +0.040 A 
ATOM      7  C   UNL     1     -27.515  11.914 -21.902  1.00  0.00    +0.031 A 
ATOM      8  C   UNL     1     -28.514  12.624 -21.223  1.00  0.00    +0.014 A 
ATOM      9  C   UNL     1     -27.723   8.648 -23.199  1.00  0.00    +0.210 A 
ATOM     10  H   UNL     1     -29.708   8.123 -22.647  1.00  0.00    +0.170 HD
ENDROOT
BRANCH   5  11
ATOM     11  C   UNL     1     -30.848  12.792 -20.285  1.00  0.00    +0.193 C 
ATOM     12  O   UNL     1     -30.559  13.408 -19.261  1.00  0.00    -0.289 OA
BRANCH  11  13
ATOM     13  C   UNL     1     -32.254  12.797 -20.761  1.00  0.00    +0.022 A 
ATOM     14  C   UNL     1     -32.571  12.739 -22.123  1.00  0.00    +0.012 A 
ATOM     15  C   UNL     1     -33.279  12.816 -19.808  1.00  0.00    +0.012 A 
ATOM     16  C   UNL     1     -33.907  12.734 -22.527  1.00  0.00    +0.001 A 
ATOM     17  C   UNL     1     -34.614  12.810 -20.216  1.00  0.00    +0.001 A 
ATOM     18  C   UNL     1     -34.927  12.774 -21.575  1.00  0.00    +0.000 A 
ENDBRANCH  11  13
ENDBRANCH   5  11
BRANCH   9  19
ATOM     19  N   UNL     1     -27.382   7.475 -23.816  1.00  0.00    -0.261 N 
ATOM     20  C   UNL     1     -27.913   6.267 -23.465  1.00  0.00    +0.413 C 
ATOM     21  O   UNL     1     -28.731   6.007 -22.598  1.00  0.00    -0.224 OA
ATOM     22  H   UNL     1     -26.714   7.455 -24.568  1.00  0.00    +0.176 HD
BRANCH  20  23
ATOM     23  O   UNL     1     -27.358   5.326 -24.282  1.00  0.00    -0.453 OA
ATOM     24  C   UNL     1     -26.510   5.867 -25.297  1.00  0.00    +0.284 C 
ENDBRANCH  20  23
ENDBRANCH   9  19
TORSDOF 4
ENDMDL
MODEL 5
REMARK VINA RESULT:    -8.714      8.359      9.871
REMARK INTER + INTRA:         -11.653
REMARK INTER:                 -11.277
REMARK INTRA:                  -0.376
REMARK UNBOUND:                -0.901
REMARK SMILES COC(=O)Nc1nc2ccc(C(=O)c3ccccc3)cc2[nH]1
REMARK SMILES IDX 22 1 7 2 21 3 8 4 11 5 20 6 9 7 10 8 6 9 12 11 13 12 14 13
REMARK SMILES IDX 15 14 19 15 16 16 18 17 17 18 5 19 3 20 4 21 2 23 1 24
REMARK H PARENT 22 10 5 22
ROOT
ATOM      1  N   UNL     1     -29.512  12.919 -30.082  1.00  0.00    -0.324 N 
ATOM      2  N   UNL     1     -30.458  13.341 -28.134  1.00  0.00    -0.213 NA
ATOM      3  C   UNL     1     -28.540  13.531 -29.333  1.00  0.00    +0.068 A 
ATOM      4  C   UNL     1     -29.164  13.792 -28.121  1.00  0.00    +0.091 A 
ATOM      5  C   UNL     1     -26.501  14.509 -28.571  1.00  0.00    +0.025 A 
ATOM      6  C   UNL     1     -27.214  13.877 -29.604  1.00  0.00    +0.040 A 
ATOM      7  C   UNL     1     -28.449  14.443 -27.105  1.00  0.00    +0.031 A 
ATOM      8  C   UNL     1     -27.116  14.807 -27.345  1.00  0.00    +0.014 A 
ATOM      9  C   UNL     1     -30.651  12.820 -29.321  1.00  0.00    +0.210 A 
ATOM     10  H   UNL     1     -29.406  12.596 -31.031  1.00  0.00    +0.170 HD
ENDROOT
BRANCH   5  11
ATOM     11  C   UNL     1     -25.092  14.895 -28.844  1.00  0.00    +0.193 C 
ATOM     12  O   UNL     1     -24.761  16.073 -28.721  1.00  0.00    -0.289 OA
BRANCH  11  13
ATOM     13  C   UNL     1     -24.077  13.898 -29.267  1.00  0.00    +0.022 A 
ATOM     14  C   UNL     1     -22.966  14.258 -30.037  1.00  0.00    +0.012 A 
ATOM     15  C   UNL     1     -24.227  12.573 -28.838  1.00  0.00    +0.012 A 
ATOM     16  C   UNL     1     -22.029  13.290 -30.404  1.00  0.00    +0.001 A 
ATOM     17  C   UNL     1     -23.287  11.609 -29.206  1.00  0.00    +0.001 A 
ATOM     18  C   UNL     1     -22.192  11.967 -29.992  1.00  0.00    +0.000 A 
ENDBRANCH  11  13
ENDBRANCH   5  11
BRANCH   9  19
ATOM     19  N   UNL     1     -31.779  12.240 -29.832  1.00  0.00    -0.261 N 
ATOM     20  C   UNL     1     -33.017  12.808 -29.737  1.00  0.00    +0.413 C 
ATOM     21  O   UNL     1     -33.344  13.861 -29.215  1.00  0.00    -0.224 OA
ATOM     22  H   UNL     1     -31.742  11.355 -30.309  1.00  0.00    +0.176 HD
BRANCH  20  23
ATOM     23  O   UNL     1     -33.899  11.968 -30.352  1.00  0.00    -0.453 OA
ATOM     24  C   UNL     1     -34.946  11.501 -29.499  1.00  0.00    +0.284 C 
ENDBRANCH  20  23
ENDBRANCH   9  19
TORSDOF 4
ENDMDL
MODEL 6
REMARK VINA RESULT:    -8.688      7.330      8.531
REMARK INTER + INTRA:         -11.621
REMARK INTER:                 -10.747
REMARK INTRA:                  -0.874
REMARK UNBOUND:                -0.901
REMARK SMILES COC(=O)Nc1nc2ccc(C(=O)c3ccccc3)cc2[nH]1
REMARK SMILES IDX 22 1 7 2 21 3 8 4 11 5 20 6 9 7 10 8 6 9 12 11 13 12 14 13
REMARK SMILES IDX 15 14 19 15 16 16 18 17 17 18 5 19 3 20 4 21 2 23 1 24
REMARK H PARENT 22 10 5 22
ROOT
ATOM      1  N   UNL     1     -30.699  13.487 -28.480  1.00  0.00    -0.324 N 
ATOM      2  N   UNL     1     -29.568  12.502 -30.098  1.00  0.00    -0.213 NA
ATOM      3  C   UNL     1     -29.412  13.941 -28.349  1.00  0.00    +0.068 A 
ATOM      4  C   UNL     1     -28.724  13.300 -29.371  1.00  0.00    +0.091 A 
ATOM      5  C   UNL     1     -27.432  15.057 -27.624  1.00  0.00    +0.025 A 
ATOM      6  C   UNL     1     -28.807  14.821 -27.450  1.00  0.00    +0.040 A 
ATOM      7  C   UNL     1     -27.348  13.527 -29.521  1.00  0.00    +0.031 A 
ATOM      8  C   UNL     1     -26.708  14.403 -28.633  1.00  0.00    +0.014 A 
ATOM      9  C   UNL     1     -30.751  12.625 -29.548  1.00  0.00    +0.210 A 
ATOM     10  H   UNL     1     -31.476  13.743 -27.891  1.00  0.00    +0.170 HD
ENDROOT
BRANCH   5  11
ATOM     11  C   UNL     1     -26.767  15.983 -26.669  1.00  0.00    +0.193 C 
ATOM     12  O   UNL     1     -26.635  17.165 -26.979  1.00  0.00    -0.289 OA
BRANCH  11  13
ATOM     13  C   UNL     1     -26.253  15.515 -25.358  1.00  0.00    +0.022 A 
ATOM     14  C   UNL     1     -26.935  15.777 -24.164  1.00  0.00    +0.012 A 
ATOM     15  C   UNL     1     -25.077  14.756 -25.336  1.00  0.00    +0.012 A 
ATOM     16  C   UNL     1     -26.422  15.308 -22.953  1.00  0.00    +0.001 A 
ATOM     17  C   UNL     1     -24.568  14.289 -24.123  1.00  0.00    +0.001 A 
ATOM     18  C   UNL     1     -25.238  14.569 -22.933  1.00  0.00    +0.000 A 
ENDBRANCH  11  13
ENDBRANCH   5  11
BRANCH   9  19
ATOM     19  N   UNL     1     -31.929  12.028 -29.903  1.00  0.00    -0.261 N 
ATOM     20  C   UNL     1     -33.137  12.661 -29.830  1.00  0.00    +0.413 C 
ATOM     21  O   UNL     1     -33.392  13.795 -29.459  1.00  0.00    -0.224 OA
ATOM     22  H   UNL     1     -31.955  11.081 -30.240  1.00  0.00    +0.176 HD
BRANCH  20  23
ATOM     23  O   UNL     1     -34.086  11.780 -30.262  1.00  0.00    -0.453 OA
ATOM     24  C   UNL     1     -34.883  11.227 -29.213  1.00  0.00    +0.284 C 
ENDBRANCH  20  23
ENDBRANCH   9  19
TORSDOF 4
ENDMDL
MODEL 7
REMARK VINA RESULT:    -8.202      7.989      9.055
REMARK INTER + INTRA:         -11.022
REMARK INTER:                 -10.555
REMARK INTRA:                  -0.466
REMARK UNBOUND:                -0.901
REMARK SMILES COC(=O)Nc1nc2ccc(C(=O)c3ccccc3)cc2[nH]1
REMARK SMILES IDX 22 1 7 2 21 3 8 4 11 5 20 6 9 7 10 8 6 9 12 11 13 12 14 13
REMARK SMILES IDX 15 14 19 15 16 16 18 17 17 18 5 19 3 20 4 21 2 23 1 24
REMARK H PARENT 22 10 5 22
ROOT
ATOM      1  N   UNL     1     -31.821  13.380 -28.418  1.00  0.00    -0.324 N 
ATOM      2  N   UNL     1     -30.913  12.119 -29.985  1.00  0.00    -0.213 NA
ATOM      3  C   UNL     1     -30.478  13.653 -28.369  1.00  0.00    +0.068 A 
ATOM      4  C   UNL     1     -29.934  12.842 -29.357  1.00  0.00    +0.091 A 
ATOM      5  C   UNL     1     -28.329  14.526 -27.808  1.00  0.00    +0.025 A 
ATOM      6  C   UNL     1     -29.714  14.505 -27.568  1.00  0.00    +0.040 A 
ATOM      7  C   UNL     1     -28.548  12.856 -29.571  1.00  0.00    +0.031 A 
ATOM      8  C   UNL     1     -27.751  13.698 -28.782  1.00  0.00    +0.014 A 
ATOM      9  C   UNL     1     -32.041  12.454 -29.407  1.00  0.00    +0.210 A 
ATOM     10  H   UNL     1     -32.526  13.791 -27.826  1.00  0.00    +0.170 HD
ENDROOT
BRANCH   5  11
ATOM     11  C   UNL     1     -27.498  15.419 -26.958  1.00  0.00    +0.193 C 
ATOM     12  O   UNL     1     -28.054  16.252 -26.246  1.00  0.00    -0.289 OA
BRANCH  11  13
ATOM     13  C   UNL     1     -26.016  15.334 -26.953  1.00  0.00    +0.022 A 
ATOM     14  C   UNL     1     -25.216  16.387 -27.413  1.00  0.00    +0.012 A 
ATOM     15  C   UNL     1     -25.417  14.182 -26.429  1.00  0.00    +0.012 A 
ATOM     16  C   UNL     1     -23.826  16.270 -27.379  1.00  0.00    +0.001 A 
ATOM     17  C   UNL     1     -24.026  14.070 -26.397  1.00  0.00    +0.001 A 
ATOM     18  C   UNL     1     -23.232  15.112 -26.876  1.00  0.00    +0.000 A 
ENDBRANCH  11  13
ENDBRANCH   5  11
BRANCH   9  19
ATOM     19  N   UNL     1     -33.307  12.006 -29.670  1.00  0.00    -0.261 N 
ATOM     20  C   UNL     1     -33.879  12.075 -30.908  1.00  0.00    +0.413 C 
ATOM     21  O   UNL     1     -33.417  12.517 -31.948  1.00  0.00    -0.224 OA
ATOM     22  H   UNL     1     -33.878  11.600 -28.949  1.00  0.00    +0.176 HD
BRANCH  20  23
ATOM     23  O   UNL     1     -35.130  11.540 -30.809  1.00  0.00    -0.453 OA
ATOM     24  C   UNL     1     -35.452  11.057 -29.503  1.00  0.00    +0.284 C 
ENDBRANCH  20  23
ENDBRANCH   9  19
TORSDOF 4
ENDMDL
MODEL 8
REMARK VINA RESULT:    -8.200      6.400      7.706
REMARK INTER + INTRA:         -11.019
REMARK INTER:                 -10.178
REMARK INTRA:                  -0.841
REMARK UNBOUND:                -0.901
REMARK SMILES COC(=O)Nc1nc2ccc(C(=O)c3ccccc3)cc2[nH]1
REMARK SMILES IDX 22 1 7 2 21 3 8 4 11 5 20 6 9 7 10 8 6 9 12 11 13 12 14 13
REMARK SMILES IDX 15 14 19 15 16 16 18 17 17 18 5 19 3 20 4 21 2 23 1 24
REMARK H PARENT 22 10 5 22
ROOT
ATOM      1  N   UNL     1     -31.608  13.456 -27.312  1.00  0.00    -0.324 N 
ATOM      2  N   UNL     1     -30.097  13.555 -28.917  1.00  0.00    -0.213 NA
ATOM      3  C   UNL     1     -30.569  14.182 -26.787  1.00  0.00    +0.068 A 
ATOM      4  C   UNL     1     -29.634  14.220 -27.812  1.00  0.00    +0.091 A 
ATOM      5  C   UNL     1     -29.152  15.461 -25.356  1.00  0.00    +0.025 A 
ATOM      6  C   UNL     1     -30.369  14.782 -25.542  1.00  0.00    +0.040 A 
ATOM      7  C   UNL     1     -28.415  14.881 -27.606  1.00  0.00    +0.031 A 
ATOM      8  C   UNL     1     -28.180  15.493 -26.366  1.00  0.00    +0.014 A 
ATOM      9  C   UNL     1     -31.285  13.100 -28.598  1.00  0.00    +0.210 A 
ATOM     10  H   UNL     1     -32.463  13.223 -26.832  1.00  0.00    +0.170 HD
ENDROOT
BRANCH   5  11
ATOM     11  C   UNL     1     -28.916  16.098 -24.033  1.00  0.00    +0.193 C 
ATOM     12  O   UNL     1     -28.978  17.322 -23.940  1.00  0.00    -0.289 OA
BRANCH  11  13
ATOM     13  C   UNL     1     -28.600  15.295 -22.825  1.00  0.00    +0.022 A 
ATOM     14  C   UNL     1     -29.554  15.058 -21.828  1.00  0.00    +0.012 A 
ATOM     15  C   UNL     1     -27.325  14.728 -22.717  1.00  0.00    +0.012 A 
ATOM     16  C   UNL     1     -29.218  14.287 -20.714  1.00  0.00    +0.001 A 
ATOM     17  C   UNL     1     -26.994  13.957 -21.601  1.00  0.00    +0.001 A 
ATOM     18  C   UNL     1     -27.939  13.741 -20.599  1.00  0.00    +0.000 A 
ENDBRANCH  11  13
ENDBRANCH   5  11
BRANCH   9  19
ATOM     19  N   UNL     1     -32.156  12.368 -29.356  1.00  0.00    -0.261 N 
ATOM     20  C   UNL     1     -33.508  12.390 -29.167  1.00  0.00    +0.413 C 
ATOM     21  O   UNL     1     -34.162  13.013 -28.347  1.00  0.00    -0.224 OA
ATOM     22  H   UNL     1     -31.831  11.774 -30.099  1.00  0.00    +0.176 HD
BRANCH  20  23
ATOM     23  O   UNL     1     -34.063  11.555 -30.093  1.00  0.00    -0.453 OA
ATOM     24  C   UNL     1     -35.414  11.187 -29.806  1.00  0.00    +0.284 C 
ENDBRANCH  20  23
ENDBRANCH   9  19
TORSDOF 4
ENDMDL
MODEL 9
REMARK VINA RESULT:    -8.040     10.212     12.615
REMARK INTER + INTRA:         -10.822
REMARK INTER:                 -10.026
REMARK INTRA:                  -0.795
REMARK UNBOUND:                -0.901
REMARK SMILES COC(=O)Nc1nc2ccc(C(=O)c3ccccc3)cc2[nH]1
REMARK SMILES IDX 22 1 7 2 21 3 8 4 11 5 20 6 9 7 10 8 6 9 12 11 13 12 14 13
REMARK SMILES IDX 15 14 19 15 16 16 18 17 17 18 5 19 3 20 4 21 2 23 1 24
REMARK H PARENT 22 10 5 22
ROOT
ATOM      1  N   UNL     1     -23.638  15.020 -28.689  1.00  0.00    -0.324 N 
ATOM      2  N   UNL     1     -24.776  13.163 -29.045  1.00  0.00    -0.213 NA
ATOM      3  C   UNL     1     -22.797  14.214 -29.413  1.00  0.00    +0.068 A 
ATOM      4  C   UNL     1     -23.534  13.055 -29.614  1.00  0.00    +0.091 A 
ATOM      5  C   UNL     1     -20.937  13.321 -30.610  1.00  0.00    +0.025 A 
ATOM      6  C   UNL     1     -21.496  14.389 -29.887  1.00  0.00    +0.040 A 
ATOM      7  C   UNL     1     -22.958  11.987 -30.317  1.00  0.00    +0.031 A 
ATOM      8  C   UNL     1     -21.650  12.128 -30.805  1.00  0.00    +0.014 A 
ATOM      9  C   UNL     1     -24.821  14.351 -28.492  1.00  0.00    +0.210 A 
ATOM     10  H   UNL     1     -23.422  15.948 -28.358  1.00  0.00    +0.170 HD
ENDROOT
BRANCH   5  11
ATOM     11  C   UNL     1     -19.548  13.483 -31.114  1.00  0.00    +0.193 C 
ATOM     12  O   UNL     1     -19.365  13.640 -32.319  1.00  0.00    -0.289 OA
BRANCH  11  13
ATOM     13  C   UNL     1     -18.378  13.454 -30.201  1.00  0.00    +0.022 A 
ATOM     14  C   UNL     1     -18.498  13.068 -28.861  1.00  0.00    +0.012 A 
ATOM     15  C   UNL     1     -17.119  13.780 -30.721  1.00  0.00    +0.012 A 
ATOM     16  C   UNL     1     -17.370  13.043 -28.040  1.00  0.00    +0.001 A 
ATOM     17  C   UNL     1     -15.994  13.753 -29.896  1.00  0.00    +0.001 A 
ATOM     18  C   UNL     1     -16.120  13.390 -28.556  1.00  0.00    +0.000 A 
ENDBRANCH  11  13
ENDBRANCH   5  11
BRANCH   9  19
ATOM     19  N   UNL     1     -25.843  14.937 -27.797  1.00  0.00    -0.261 N 
ATOM     20  C   UNL     1     -26.310  16.190 -28.073  1.00  0.00    +0.413 C 
ATOM     21  O   UNL     1     -25.938  16.981 -28.924  1.00  0.00    -0.224 OA
ATOM     22  H   UNL     1     -26.302  14.459 -27.041  1.00  0.00    +0.176 HD
BRANCH  20  23
ATOM     23  O   UNL     1     -27.324  16.449 -27.198  1.00  0.00    -0.453 OA
ATOM     24  C   UNL     1     -26.908  16.520 -25.832  1.00  0.00    +0.284 C 
ENDBRANCH  20  23
ENDBRANCH   9  19
TORSDOF 4
ENDMDL
