MODEL 1
REMARK VINA RESULT:    -7.296      0.000      0.000
REMARK INTER + INTRA:          -9.893
REMARK INTER:                  -9.002
REMARK INTRA:                  -0.891
REMARK UNBOUND:                -0.891
REMARK SMILES COC(=O)Nc1nc2ccc(C(=O)c3ccccc3)cc2[nH]1
REMARK SMILES IDX 22 1 7 2 21 3 8 4 11 5 20 6 9 7 10 8 6 9 12 11 13 12 14 13
REMARK SMILES IDX 15 14 19 15 16 16 18 17 17 18 5 19 3 20 4 21 2 23 1 24
REMARK H PARENT 22 10 5 22
ROOT
ATOM      1  N   UNL     1     -13.118 -17.588  22.554  1.00  0.00    -0.324 N 
ATOM      2  N   UNL     1     -11.035 -16.949  22.204  1.00  0.00    -0.213 NA
ATOM      3  C   UNL     1     -12.684 -17.096  23.758  1.00  0.00    +0.068 A 
ATOM      4  C   UNL     1     -11.373 -16.711  23.510  1.00  0.00    +0.091 A 
ATOM      5  C   UNL     1     -12.528 -16.401  26.035  1.00  0.00    +0.025 A 
ATOM      6  C   UNL     1     -13.299 -16.965  25.004  1.00  0.00    +0.040 A 
ATOM      7  C   UNL     1     -10.606 -16.170  24.552  1.00  0.00    +0.031 A 
ATOM      8  C   UNL     1     -11.193 -16.027  25.818  1.00  0.00    +0.014 A 
ATOM      9  C   UNL     1     -12.096 -17.478  21.644  1.00  0.00    +0.210 A 
ATOM     10  H   UNL     1     -14.034 -17.967  22.370  1.00  0.00    +0.170 HD
ENDROOT
BRANCH   5  11
ATOM     11  C   UNL     1     -13.163 -16.264  27.373  1.00  0.00    +0.193 C 
ATOM     12  O   UNL     1     -12.978 -17.141  28.214  1.00  0.00    -0.289 OA
BRANCH  11  13
ATOM     13  C   UNL     1     -14.019 -15.101  27.715  1.00  0.00    +0.022 A 
ATOM     14  C   UNL     1     -15.385 -15.245  27.984  1.00  0.00    +0.012 A 
ATOM     15  C   UNL     1     -13.420 -13.839  27.811  1.00  0.00    +0.012 A 
ATOM     16  C   UNL     1     -16.151 -14.126  28.314  1.00  0.00    +0.001 A 
ATOM     17  C   UNL     1     -14.190 -12.723  28.142  1.00  0.00    +0.001 A 
ATOM     18  C   UNL     1     -15.555 -12.866  28.388  1.00  0.00    +0.000 A 
ENDBRANCH  11  13
ENDBRANCH   5  11
BRANCH   9  19
ATOM     19  N   UNL     1     -12.267 -17.896  20.353  1.00  0.00    -0.261 N 
ATOM     20  C   UNL     1     -13.400 -17.646  19.633  1.00  0.00    +0.413 C 
ATOM     21  O   UNL     1     -14.412 -17.052  19.968  1.00  0.00    -0.224 OA
ATOM     22  H   UNL     1     -11.552 -18.414  19.871  1.00  0.00    +0.176 HD
BRANCH  20  23
ATOM     23  O   UNL     1     -13.227 -18.198  18.396  1.00  0.00    -0.453 OA
ATOM     24  C   UNL     1     -11.942 -18.791  18.201  1.00  0.00    +0.284 C 
ENDBRANCH  20  23
ENDBRANCH   9  19
TORSDOF 4
ENDMDL
MODEL 2
REMARK VINA RESULT:    -6.811      1.918      2.521
REMARK INTER + INTRA:          -9.295
REMARK INTER:                  -8.634
REMARK INTRA:                  -0.661
REMARK UNBOUND:                -0.891
REMARK SMILES COC(=O)Nc1nc2ccc(C(=O)c3ccccc3)cc2[nH]1
REMARK SMILES IDX 22 1 7 2 21 3 8 4 11 5 20 6 9 7 10 8 6 9 12 11 13 12 14 13
REMARK SMILES IDX 15 14 19 15 16 16 18 17 17 18 5 19 3 20 4 21 2 23 1 24
REMARK H PARENT 22 10 5 22
ROOT
ATOM      1  N   UNL     1     -10.617 -16.432  23.113  1.00  0.00    -0.324 N 
ATOM      2  N   UNL     1     -12.379 -17.442  22.252  1.00  0.00    -0.213 NA
ATOM      3  C   UNL     1     -11.506 -16.554  24.150  1.00  0.00    +0.068 A 
ATOM      4  C   UNL     1     -12.604 -17.183  23.578  1.00  0.00    +0.091 A 
ATOM      5  C   UNL     1     -12.578 -16.469  26.280  1.00  0.00    +0.025 A 
ATOM      6  C   UNL     1     -11.451 -16.174  25.493  1.00  0.00    +0.040 A 
ATOM      7  C   UNL     1     -13.731 -17.451  24.369  1.00  0.00    +0.031 A 
ATOM      8  C   UNL     1     -13.711 -17.080  25.721  1.00  0.00    +0.014 A 
ATOM      9  C   UNL     1     -11.180 -16.983  21.989  1.00  0.00    +0.210 A 
ATOM     10  H   UNL     1      -9.703 -16.009  23.169  1.00  0.00    +0.170 HD
ENDROOT
BRANCH   5  11
ATOM     11  C   UNL     1     -12.543 -16.062  27.710  1.00  0.00    +0.193 C 
ATOM     12  O   UNL     1     -11.511 -16.238  28.355  1.00  0.00    -0.289 OA
BRANCH  11  13
ATOM     13  C   UNL     1     -13.722 -15.458  28.379  1.00  0.00    +0.022 A 
ATOM     14  C   UNL     1     -14.328 -14.294  27.893  1.00  0.00    +0.012 A 
ATOM     15  C   UNL     1     -14.258 -16.107  29.498  1.00  0.00    +0.012 A 
ATOM     16  C   UNL     1     -15.443 -13.765  28.546  1.00  0.00    +0.001 A 
ATOM     17  C   UNL     1     -15.373 -15.575  30.147  1.00  0.00    +0.001 A 
ATOM     18  C   UNL     1     -15.962 -14.403  29.674  1.00  0.00    +0.000 A 
ENDBRANCH  11  13
ENDBRANCH   5  11
BRANCH   9  19
ATOM     19  N   UNL     1     -10.496 -16.996  20.804  1.00  0.00    -0.261 N 
ATOM     20  C   UNL     1      -9.967 -18.133  20.263  1.00  0.00    +0.413 C 
ATOM     21  O   UNL     1      -9.990 -19.275  20.692  1.00  0.00    -0.224 OA
ATOM     22  H   UNL     1     -10.354 -16.155  20.273  1.00  0.00    +0.176 HD
BRANCH  20  23
ATOM     23  O   UNL     1      -9.365 -17.783  19.089  1.00  0.00    -0.453 OA
ATOM     24  C   UNL     1      -8.579 -18.825  18.507  1.00  0.00    +0.284 C 
ENDBRANCH  20  23
ENDBRANCH   9  19
TORSDOF 4
ENDMDL
MODEL 3
REMARK VINA RESULT:    -6.782      6.248      7.507
REMARK INTER + INTRA:          -9.259
REMARK INTER:                  -8.442
REMARK INTRA:                  -0.817
REMARK UNBOUND:                -0.891
REMARK SMILES COC(=O)Nc1nc2ccc(C(=O)c3ccccc3)cc2[nH]1
REMARK SMILES IDX 22 1 7 2 21 3 8 4 11 5 20 6 9 7 10 8 6 9 12 11 13 12 14 13
REMARK SMILES IDX 15 14 19 15 16 16 18 17 17 18 5 19 3 20 4 21 2 23 1 24
REMARK H PARENT 22 10 5 22
ROOT
ATOM      1  N   UNL     1     -14.818  -8.378  24.191  1.00  0.00    -0.324 N 
ATOM      2  N   UNL     1     -13.185  -8.950  22.821  1.00  0.00    -0.213 NA
ATOM      3  C   UNL     1     -14.118  -9.355  24.851  1.00  0.00    +0.068 A 
ATOM      4  C   UNL     1     -13.106  -9.700  23.964  1.00  0.00    +0.091 A 
ATOM      5  C   UNL     1     -13.348 -10.945  26.454  1.00  0.00    +0.025 A 
ATOM      6  C   UNL     1     -14.281  -9.954  26.101  1.00  0.00    +0.040 A 
ATOM      7  C   UNL     1     -12.196 -10.706  24.319  1.00  0.00    +0.031 A 
ATOM      8  C   UNL     1     -12.332 -11.331  25.567  1.00  0.00    +0.014 A 
ATOM      9  C   UNL     1     -14.221  -8.161  22.973  1.00  0.00    +0.210 A 
ATOM     10  H   UNL     1     -15.633  -7.900  24.542  1.00  0.00    +0.170 HD
ENDROOT
BRANCH   5  11
ATOM     11  C   UNL     1     -13.511 -11.603  27.778  1.00  0.00    +0.193 C 
ATOM     12  O   UNL     1     -12.810 -11.234  28.718  1.00  0.00    -0.289 OA
BRANCH  11  13
ATOM     13  C   UNL     1     -14.492 -12.696  27.991  1.00  0.00    +0.022 A 
ATOM     14  C   UNL     1     -15.855 -12.438  28.174  1.00  0.00    +0.012 A 
ATOM     15  C   UNL     1     -14.032 -14.018  27.961  1.00  0.00    +0.012 A 
ATOM     16  C   UNL     1     -16.746 -13.497  28.360  1.00  0.00    +0.001 A 
ATOM     17  C   UNL     1     -14.926 -15.074  28.146  1.00  0.00    +0.001 A 
ATOM     18  C   UNL     1     -16.281 -14.812  28.350  1.00  0.00    +0.000 A 
ENDBRANCH  11  13
ENDBRANCH   5  11
BRANCH   9  19
ATOM     19  N   UNL     1     -14.723  -7.226  22.110  1.00  0.00    -0.261 N 
ATOM     20  C   UNL     1     -15.946  -7.341  21.514  1.00  0.00    +0.413 C 
ATOM     21  O   UNL     1     -16.772  -8.233  21.616  1.00  0.00    -0.224 OA
ATOM     22  H   UNL     1     -14.202  -6.398  21.877  1.00  0.00    +0.176 HD
BRANCH  20  23
ATOM     23  O   UNL     1     -16.123  -6.238  20.730  1.00  0.00    -0.453 OA
ATOM     24  C   UNL     1     -15.633  -6.391  19.396  1.00  0.00    +0.284 C 
ENDBRANCH  20  23
ENDBRANCH   9  19
TORSDOF 4
ENDMDL
MODEL 4
REMARK VINA RESULT:    -6.576      8.360     10.964
REMARK INTER + INTRA:          -9.004
REMARK INTER:                  -8.129
REMARK INTRA:                  -0.875
REMARK UNBOUND:                -0.891
REMARK SMILES COC(=O)Nc1nc2ccc(C(=O)c3ccccc3)cc2[nH]1
REMARK SMILES IDX 22 1 7 2 21 3 8 4 11 5 20 6 9 7 10 8 6 9 12 11 13 12 14 13
REMARK SMILES IDX 15 14 19 15 16 16 18 17 17 18 5 19 3 20 4 21 2 23 1 24
REMARK H PARENT 22 10 5 22
ROOT
ATOM      1  N   UNL     1     -15.922  -8.495  17.763  1.00  0.00    -0.324 N 
ATOM      2  N   UNL     1     -16.484  -8.517  19.897  1.00  0.00    -0.213 NA
ATOM      3  C   UNL     1     -15.971  -9.820  18.111  1.00  0.00    +0.068 A 
ATOM      4  C   UNL     1     -16.317  -9.803  19.455  1.00  0.00    +0.091 A 
ATOM      5  C   UNL     1     -15.889 -12.205  18.093  1.00  0.00    +0.025 A 
ATOM      6  C   UNL     1     -15.742 -10.996  17.392  1.00  0.00    +0.040 A 
ATOM      7  C   UNL     1     -16.439 -11.015  20.149  1.00  0.00    +0.031 A 
ATOM      8  C   UNL     1     -16.213 -12.214  19.459  1.00  0.00    +0.014 A 
ATOM      9  C   UNL     1     -16.241  -7.743  18.867  1.00  0.00    +0.210 A 
ATOM     10  H   UNL     1     -15.690  -8.135  16.851  1.00  0.00    +0.170 HD
ENDROOT
BRANCH   5  11
ATOM     11  C   UNL     1     -15.639 -13.467  17.348  1.00  0.00    +0.193 C 
ATOM     12  O   UNL     1     -16.186 -13.636  16.260  1.00  0.00    -0.289 OA
BRANCH  11  13
ATOM     13  C   UNL     1     -14.752 -14.529  17.886  1.00  0.00    +0.022 A 
ATOM     14  C   UNL     1     -13.447 -14.254  18.310  1.00  0.00    +0.012 A 
ATOM     15  C   UNL     1     -15.265 -15.826  18.008  1.00  0.00    +0.012 A 
ATOM     16  C   UNL     1     -12.651 -15.280  18.821  1.00  0.00    +0.001 A 
ATOM     17  C   UNL     1     -14.466 -16.849  18.520  1.00  0.00    +0.001 A 
ATOM     18  C   UNL     1     -13.158 -16.576  18.922  1.00  0.00    +0.000 A 
ENDBRANCH  11  13
ENDBRANCH   5  11
BRANCH   9  19
ATOM     19  N   UNL     1     -16.270  -6.377  18.793  1.00  0.00    -0.261 N 
ATOM     20  C   UNL     1     -15.206  -5.631  18.374  1.00  0.00    +0.413 C 
ATOM     21  O   UNL     1     -14.100  -5.999  18.015  1.00  0.00    -0.224 OA
ATOM     22  H   UNL     1     -17.093  -5.857  19.046  1.00  0.00    +0.176 HD
BRANCH  20  23
ATOM     23  O   UNL     1     -15.585  -4.320  18.420  1.00  0.00    -0.453 OA
ATOM     24  C   UNL     1     -15.361  -3.610  17.200  1.00  0.00    +0.284 C 
ENDBRANCH  20  23
ENDBRANCH   9  19
TORSDOF 4
ENDMDL
MODEL 5
REMARK VINA RESULT:    -6.434      9.703     11.572
REMARK INTER + INTRA:          -8.829
REMARK INTER:                  -7.954
REMARK INTRA:                  -0.875
REMARK UNBOUND:                -0.891
REMARK SMILES COC(=O)Nc1nc2ccc(C(=O)c3ccccc3)cc2[nH]1
REMARK SMILES IDX 22 1 7 2 21 3 8 4 11 5 20 6 9 7 10 8 6 9 12 11 13 12 14 13
REMARK SMILES IDX 15 14 19 15 16 16 18 17 17 18 5 19 3 20 4 21 2 23 1 24
REMARK H PARENT 22 10 5 22
ROOT
ATOM      1  N   UNL     1     -15.881  -8.058  16.151  1.00  0.00    -0.324 N 
ATOM      2  N   UNL     1     -16.215  -6.433  17.606  1.00  0.00    -0.213 NA
ATOM      3  C   UNL     1     -16.032  -8.683  17.362  1.00  0.00    +0.068 A 
ATOM      4  C   UNL     1     -16.231  -7.639  18.256  1.00  0.00    +0.091 A 
ATOM      5  C   UNL     1     -16.203 -10.301  19.107  1.00  0.00    +0.025 A 
ATOM      6  C   UNL     1     -16.004 -10.026  17.743  1.00  0.00    +0.040 A 
ATOM      7  C   UNL     1     -16.406  -7.925  19.618  1.00  0.00    +0.031 A 
ATOM      8  C   UNL     1     -16.381  -9.264  20.035  1.00  0.00    +0.014 A 
ATOM      9  C   UNL     1     -16.001  -6.703  16.341  1.00  0.00    +0.210 A 
ATOM     10  H   UNL     1     -15.709  -8.517  15.270  1.00  0.00    +0.170 HD
ENDROOT
BRANCH   5  11
ATOM     11  C   UNL     1     -16.166 -11.725  19.534  1.00  0.00    +0.193 C 
ATOM     12  O   UNL     1     -16.789 -12.063  20.539  1.00  0.00    -0.289 OA
BRANCH  11  13
ATOM     13  C   UNL     1     -15.390 -12.745  18.785  1.00  0.00    +0.022 A 
ATOM     14  C   UNL     1     -16.014 -13.674  17.945  1.00  0.00    +0.012 A 
ATOM     15  C   UNL     1     -13.995 -12.735  18.898  1.00  0.00    +0.012 A 
ATOM     16  C   UNL     1     -15.246 -14.609  17.249  1.00  0.00    +0.001 A 
ATOM     17  C   UNL     1     -13.230 -13.672  18.200  1.00  0.00    +0.001 A 
ATOM     18  C   UNL     1     -13.857 -14.610  17.380  1.00  0.00    +0.000 A 
ENDBRANCH  11  13
ENDBRANCH   5  11
BRANCH   9  19
ATOM     19  N   UNL     1     -15.895  -5.841  15.285  1.00  0.00    -0.261 N 
ATOM     20  C   UNL     1     -16.618  -5.979  14.135  1.00  0.00    +0.413 C 
ATOM     21  O   UNL     1     -17.436  -6.833  13.836  1.00  0.00    -0.224 OA
ATOM     22  H   UNL     1     -15.269  -5.054  15.314  1.00  0.00    +0.176 HD
BRANCH  20  23
ATOM     23  O   UNL     1     -16.268  -4.951  13.308  1.00  0.00    -0.453 OA
ATOM     24  C   UNL     1     -15.767  -3.801  13.993  1.00  0.00    +0.284 C 
ENDBRANCH  20  23
ENDBRANCH   9  19
TORSDOF 4
ENDMDL
MODEL 6
REMARK VINA RESULT:    -6.434     10.526     11.802
REMARK INTER + INTRA:          -8.829
REMARK INTER:                  -7.948
REMARK INTRA:                  -0.881
REMARK UNBOUND:                -0.891
REMARK SMILES COC(=O)Nc1nc2ccc(C(=O)c3ccccc3)cc2[nH]1
REMARK SMILES IDX 22 1 7 2 21 3 8 4 11 5 20 6 9 7 10 8 6 9 12 11 13 12 14 13
REMARK SMILES IDX 15 14 19 15 16 16 18 17 17 18 5 19 3 20 4 21 2 23 1 24
REMARK H PARENT 22 10 5 22
ROOT
ATOM      1  N   UNL     1     -14.356  -5.942  18.278  1.00  0.00    -0.324 N 
ATOM      2  N   UNL     1     -15.978  -4.819  19.267  1.00  0.00    -0.213 NA
ATOM      3  C   UNL     1     -14.851  -6.790  19.235  1.00  0.00    +0.068 A 
ATOM      4  C   UNL     1     -15.860  -6.056  19.844  1.00  0.00    +0.091 A 
ATOM      5  C   UNL     1     -15.253  -8.657  20.665  1.00  0.00    +0.025 A 
ATOM      6  C   UNL     1     -14.509  -8.089  19.616  1.00  0.00    +0.040 A 
ATOM      7  C   UNL     1     -16.580  -6.626  20.905  1.00  0.00    +0.031 A 
ATOM      8  C   UNL     1     -16.261  -7.929  21.314  1.00  0.00    +0.014 A 
ATOM      9  C   UNL     1     -15.065  -4.767  18.327  1.00  0.00    +0.210 A 
ATOM     10  H   UNL     1     -13.599  -6.148  17.645  1.00  0.00    +0.170 HD
ENDROOT
BRANCH   5  11
ATOM     11  C   UNL     1     -14.897 -10.037  21.091  1.00  0.00    +0.193 C 
ATOM     12  O   UNL     1     -14.569 -10.234  22.260  1.00  0.00    -0.289 OA
BRANCH  11  13
ATOM     13  C   UNL     1     -14.919 -11.178  20.143  1.00  0.00    +0.022 A 
ATOM     14  C   UNL     1     -16.120 -11.714  19.664  1.00  0.00    +0.012 A 
ATOM     15  C   UNL     1     -13.698 -11.691  19.689  1.00  0.00    +0.012 A 
ATOM     16  C   UNL     1     -16.096 -12.780  18.763  1.00  0.00    +0.001 A 
ATOM     17  C   UNL     1     -13.679 -12.756  18.788  1.00  0.00    +0.001 A 
ATOM     18  C   UNL     1     -14.877 -13.303  18.330  1.00  0.00    +0.000 A 
ENDBRANCH  11  13
ENDBRANCH   5  11
BRANCH   9  19
ATOM     19  N   UNL     1     -14.775  -3.743  17.468  1.00  0.00    -0.261 N 
ATOM     20  C   UNL     1     -14.970  -3.825  16.119  1.00  0.00    +0.413 C 
ATOM     21  O   UNL     1     -15.403  -4.754  15.457  1.00  0.00    -0.224 OA
ATOM     22  H   UNL     1     -14.400  -2.871  17.801  1.00  0.00    +0.176 HD
BRANCH  20  23
ATOM     23  O   UNL     1     -14.582  -2.634  15.578  1.00  0.00    -0.453 OA
ATOM     24  C   UNL     1     -13.601  -1.939  16.350  1.00  0.00    +0.284 C 
ENDBRANCH  20  23
ENDBRANCH   9  19
TORSDOF 4
ENDMDL
MODEL 7
REMARK VINA RESULT:    -6.271     12.782     14.378
REMARK INTER + INTRA:          -8.628
REMARK INTER:                  -7.757
REMARK INTRA:                  -0.872
REMARK UNBOUND:                -0.891
REMARK SMILES COC(=O)Nc1nc2ccc(C(=O)c3ccccc3)cc2[nH]1
REMARK SMILES IDX 22 1 7 2 21 3 8 4 11 5 20 6 9 7 10 8 6 9 12 11 13 12 14 13
REMARK SMILES IDX 15 14 19 15 16 16 18 17 17 18 5 19 3 20 4 21 2 23 1 24
REMARK H PARENT 22 10 5 22
ROOT
ATOM      1  N   UNL     1     -15.567  -5.953  20.113  1.00  0.00    -0.324 N 
ATOM      2  N   UNL     1     -16.113  -7.845  19.116  1.00  0.00    -0.213 NA
ATOM      3  C   UNL     1     -15.524  -5.679  18.770  1.00  0.00    +0.068 A 
ATOM      4  C   UNL     1     -15.862  -6.885  18.170  1.00  0.00    +0.091 A 
ATOM      5  C   UNL     1     -15.281  -4.615  16.648  1.00  0.00    +0.025 A 
ATOM      6  C   UNL     1     -15.220  -4.522  18.050  1.00  0.00    +0.040 A 
ATOM      7  C   UNL     1     -15.898  -6.971  16.771  1.00  0.00    +0.031 A 
ATOM      8  C   UNL     1     -15.596  -5.828  16.017  1.00  0.00    +0.014 A 
ATOM      9  C   UNL     1     -15.929  -7.267  20.278  1.00  0.00    +0.210 A 
ATOM     10  H   UNL     1     -15.365  -5.299  20.852  1.00  0.00    +0.170 HD
ENDROOT
BRANCH   5  11
ATOM     11  C   UNL     1     -14.950  -3.396  15.864  1.00  0.00    +0.193 C 
ATOM     12  O   UNL     1     -15.679  -3.073  14.927  1.00  0.00    -0.289 OA
BRANCH  11  13
ATOM     13  C   UNL     1     -13.762  -2.565  16.176  1.00  0.00    +0.022 A 
ATOM     14  C   UNL     1     -13.876  -1.330  16.826  1.00  0.00    +0.012 A 
ATOM     15  C   UNL     1     -12.495  -3.063  15.847  1.00  0.00    +0.012 A 
ATOM     16  C   UNL     1     -12.730  -0.586  17.112  1.00  0.00    +0.001 A 
ATOM     17  C   UNL     1     -11.353  -2.315  16.135  1.00  0.00    +0.001 A 
ATOM     18  C   UNL     1     -11.471  -1.076  16.763  1.00  0.00    +0.000 A 
ENDBRANCH  11  13
ENDBRANCH   5  11
BRANCH   9  19
ATOM     19  N   UNL     1     -16.051  -7.802  21.531  1.00  0.00    -0.261 N 
ATOM     20  C   UNL     1     -15.003  -7.914  22.399  1.00  0.00    +0.413 C 
ATOM     21  O   UNL     1     -13.836  -7.591  22.245  1.00  0.00    -0.224 OA
ATOM     22  H   UNL     1     -16.935  -8.139  21.872  1.00  0.00    +0.176 HD
BRANCH  20  23
ATOM     23  O   UNL     1     -15.481  -8.481  23.545  1.00  0.00    -0.453 OA
ATOM     24  C   UNL     1     -14.493  -8.648  24.564  1.00  0.00    +0.284 C 
ENDBRANCH  20  23
ENDBRANCH   9  19
TORSDOF 4
ENDMDL
MODEL 8
REMARK VINA RESULT:    -6.163      5.708      6.778
REMARK INTER + INTRA:          -8.495
REMARK INTER:                  -7.661
REMARK INTRA:                  -0.833
REMARK UNBOUND:                -0.891
REMARK SMILES COC(=O)Nc1nc2ccc(C(=O)c3ccccc3)cc2[nH]1
REMARK SMILES IDX 22 1 7 2 21 3 8 4 11 5 20 6 9 7 10 8 6 9 12 11 13 12 14 13
REMARK SMILES IDX 15 14 19 15 16 16 18 17 17 18 5 19 3 20 4 21 2 23 1 24
REMARK H PARENT 22 10 5 22
ROOT
ATOM      1  N   UNL     1     -14.510 -10.625  21.960  1.00  0.00    -0.324 N 
ATOM      2  N   UNL     1     -14.731  -8.506  21.389  1.00  0.00    -0.213 NA
ATOM      3  C   UNL     1     -14.146  -9.911  23.073  1.00  0.00    +0.068 A 
ATOM      4  C   UNL     1     -14.287  -8.586  22.682  1.00  0.00    +0.091 A 
ATOM      5  C   UNL     1     -13.423  -9.262  25.252  1.00  0.00    +0.025 A 
ATOM      6  C   UNL     1     -13.713 -10.295  24.343  1.00  0.00    +0.040 A 
ATOM      7  C   UNL     1     -13.974  -7.565  23.591  1.00  0.00    +0.031 A 
ATOM      8  C   UNL     1     -13.533  -7.915  24.875  1.00  0.00    +0.014 A 
ATOM      9  C   UNL     1     -14.858  -9.741  20.969  1.00  0.00    +0.210 A 
ATOM     10  H   UNL     1     -14.518 -11.631  21.884  1.00  0.00    +0.170 HD
ENDROOT
BRANCH   5  11
ATOM     11  C   UNL     1     -12.950  -9.651  26.607  1.00  0.00    +0.193 C 
ATOM     12  O   UNL     1     -12.133  -8.934  27.182  1.00  0.00    -0.289 OA
BRANCH  11  13
ATOM     13  C   UNL     1     -13.431 -10.884  27.278  1.00  0.00    +0.022 A 
ATOM     14  C   UNL     1     -14.663 -10.928  27.942  1.00  0.00    +0.012 A 
ATOM     15  C   UNL     1     -12.642 -12.038  27.198  1.00  0.00    +0.012 A 
ATOM     16  C   UNL     1     -15.083 -12.113  28.551  1.00  0.00    +0.001 A 
ATOM     17  C   UNL     1     -13.067 -13.219  27.807  1.00  0.00    +0.001 A 
ATOM     18  C   UNL     1     -14.284 -13.255  28.487  1.00  0.00    +0.000 A 
ENDBRANCH  11  13
ENDBRANCH   5  11
BRANCH   9  19
ATOM     19  N   UNL     1     -15.268 -10.195  19.745  1.00  0.00    -0.261 N 
ATOM     20  C   UNL     1     -16.130 -11.242  19.589  1.00  0.00    +0.413 C 
ATOM     21  O   UNL     1     -16.665 -11.934  20.440  1.00  0.00    -0.224 OA
ATOM     22  H   UNL     1     -14.945  -9.767  18.894  1.00  0.00    +0.176 HD
BRANCH  20  23
ATOM     23  O   UNL     1     -16.321 -11.416  18.249  1.00  0.00    -0.453 OA
ATOM     24  C   UNL     1     -15.699 -12.591  17.723  1.00  0.00    +0.284 C 
ENDBRANCH  20  23
ENDBRANCH   9  19
TORSDOF 4
ENDMDL
MODEL 9
REMARK VINA RESULT:    -6.050      2.740      3.861
REMARK INTER + INTRA:          -8.356
REMARK INTER:                  -7.524
REMARK INTRA:                  -0.832
REMARK UNBOUND:                -0.891
REMARK SMILES COC(=O)Nc1nc2ccc(C(=O)c3ccccc3)cc2[nH]1
REMARK SMILES IDX 22 1 7 2 21 3 8 4 11 5 20 6 9 7 10 8 6 9 12 11 13 12 14 13
REMARK SMILES IDX 15 14 19 15 16 16 18 17 17 18 5 19 3 20 4 21 2 23 1 24
REMARK H PARENT 22 10 5 22
ROOT
ATOM      1  N   UNL     1     -11.700 -17.647  19.705  1.00  0.00    -0.324 N 
ATOM      2  N   UNL     1     -10.026 -19.084  19.754  1.00  0.00    -0.213 NA
ATOM      3  C   UNL     1     -11.061 -17.417  20.896  1.00  0.00    +0.068 A 
ATOM      4  C   UNL     1     -10.021 -18.338  20.903  1.00  0.00    +0.091 A 
ATOM      5  C   UNL     1     -10.413 -16.568  23.030  1.00  0.00    +0.025 A 
ATOM      6  C   UNL     1     -11.298 -16.519  21.939  1.00  0.00    +0.040 A 
ATOM      7  C   UNL     1      -9.159 -18.392  22.007  1.00  0.00    +0.031 A 
ATOM      8  C   UNL     1      -9.370 -17.506  23.073  1.00  0.00    +0.014 A 
ATOM      9  C   UNL     1     -11.043 -18.657  19.046  1.00  0.00    +0.210 A 
ATOM     10  H   UNL     1     -12.515 -17.157  19.371  1.00  0.00    +0.170 HD
ENDROOT
BRANCH   5  11
ATOM     11  C   UNL     1     -10.656 -15.627  24.155  1.00  0.00    +0.193 C 
ATOM     12  O   UNL     1     -10.190 -14.491  24.093  1.00  0.00    -0.289 OA
BRANCH  11  13
ATOM     13  C   UNL     1     -11.438 -16.025  25.351  1.00  0.00    +0.022 A 
ATOM     14  C   UNL     1     -11.021 -15.699  26.647  1.00  0.00    +0.012 A 
ATOM     15  C   UNL     1     -12.646 -16.707  25.160  1.00  0.00    +0.012 A 
ATOM     16  C   UNL     1     -11.794 -16.083  27.744  1.00  0.00    +0.001 A 
ATOM     17  C   UNL     1     -13.416 -17.089  26.260  1.00  0.00    +0.001 A 
ATOM     18  C   UNL     1     -12.987 -16.780  27.551  1.00  0.00    +0.000 A 
ENDBRANCH  11  13
ENDBRANCH   5  11
BRANCH   9  19
ATOM     19  N   UNL     1     -11.476 -19.084  17.820  1.00  0.00    -0.261 N 
ATOM     20  C   UNL     1     -11.846 -18.229  16.822  1.00  0.00    +0.413 C 
ATOM     21  O   UNL     1     -11.869 -17.009  16.820  1.00  0.00    -0.224 OA
ATOM     22  H   UNL     1     -11.539 -20.063  17.600  1.00  0.00    +0.176 HD
BRANCH  20  23
ATOM     23  O   UNL     1     -12.214 -18.990  15.750  1.00  0.00    -0.453 OA
ATOM     24  C   UNL     1     -11.366 -20.118  15.522  1.00  0.00    +0.284 C 
ENDBRANCH  20  23
ENDBRANCH   9  19
TORSDOF 4
ENDMDL
