MODEL 1
REMARK VINA RESULT:    -7.970      0.000      0.000
REMARK INTER + INTRA:         -10.693
REMARK INTER:                  -9.833
REMARK INTRA:                  -0.859
REMARK UNBOUND:                -0.859
REMARK SMILES COC(=O)Nc1nc2ccc(C(=O)c3ccccc3)cc2[nH]1
REMARK SMILES IDX 22 1 7 2 21 3 8 4 11 5 20 6 9 7 10 8 6 9 12 11 13 12 14 13
REMARK SMILES IDX 15 14 19 15 16 16 18 17 17 18 5 19 3 20 4 21 2 23 1 24
REMARK H PARENT 22 10 5 22
ROOT
ATOM      1  N   UNL     1     -26.107  14.138 -15.935  1.00  0.00    -0.324 N 
ATOM      2  N   UNL     1     -26.835  15.849 -14.748  1.00  0.00    -0.213 NA
ATOM      3  C   UNL     1     -26.014  13.736 -14.627  1.00  0.00    +0.068 A 
ATOM      4  C   UNL     1     -26.469  14.832 -13.907  1.00  0.00    +0.091 A 
ATOM      5  C   UNL     1     -25.628  12.495 -12.626  1.00  0.00    +0.025 A 
ATOM      6  C   UNL     1     -25.579  12.551 -14.030  1.00  0.00    +0.040 A 
ATOM      7  C   UNL     1     -26.492  14.772 -12.506  1.00  0.00    +0.031 A 
ATOM      8  C   UNL     1     -26.059  13.598 -11.873  1.00  0.00    +0.014 A 
ATOM      9  C   UNL     1     -26.609  15.415 -15.965  1.00  0.00    +0.210 A 
ATOM     10  H   UNL     1     -25.849  13.586 -16.739  1.00  0.00    +0.170 HD
ENDROOT
BRANCH   5  11
ATOM     11  C   UNL     1     -25.158  11.246 -11.971  1.00  0.00    +0.193 C 
ATOM     12  O   UNL     1     -25.915  10.278 -11.919  1.00  0.00    -0.289 OA
BRANCH  11  13
ATOM     13  C   UNL     1     -23.804  11.139 -11.374  1.00  0.00    +0.022 A 
ATOM     14  C   UNL     1     -23.615  11.034  -9.991  1.00  0.00    +0.012 A 
ATOM     15  C   UNL     1     -22.699  11.098 -12.233  1.00  0.00    +0.012 A 
ATOM     16  C   UNL     1     -22.324  10.923  -9.472  1.00  0.00    +0.001 A 
ATOM     17  C   UNL     1     -21.410  10.987 -11.709  1.00  0.00    +0.001 A 
ATOM     18  C   UNL     1     -21.223  10.905 -10.329  1.00  0.00    +0.000 A 
ENDBRANCH  11  13
ENDBRANCH   5  11
BRANCH   9  19
ATOM     19  N   UNL     1     -26.806  16.057 -17.156  1.00  0.00    -0.261 N 
ATOM     20  C   UNL     1     -27.700  15.628 -18.094  1.00  0.00    +0.413 C 
ATOM     21  O   UNL     1     -28.443  14.661 -18.066  1.00  0.00    -0.224 OA
ATOM     22  H   UNL     1     -26.291  16.888 -17.394  1.00  0.00    +0.176 HD
BRANCH  20  23
ATOM     23  O   UNL     1     -27.640  16.499 -19.143  1.00  0.00    -0.453 OA
ATOM     24  C   UNL     1     -26.462  16.364 -19.942  1.00  0.00    +0.284 C 
ENDBRANCH  20  23
ENDBRANCH   9  19
TORSDOF 4
ENDMDL
MODEL 2
REMARK VINA RESULT:    -7.735      4.340      4.717
REMARK INTER + INTRA:         -10.403
REMARK INTER:                  -9.636
REMARK INTRA:                  -0.767
REMARK UNBOUND:                -0.859
REMARK SMILES COC(=O)Nc1nc2ccc(C(=O)c3ccccc3)cc2[nH]1
REMARK SMILES IDX 22 1 7 2 21 3 8 4 11 5 20 6 9 7 10 8 6 9 12 11 13 12 14 13
REMARK SMILES IDX 15 14 19 15 16 16 18 17 17 18 5 19 3 20 4 21 2 23 1 24
REMARK H PARENT 22 10 5 22
ROOT
ATOM      1  N   UNL     1     -21.029  13.741 -16.844  1.00  0.00    -0.324 N 
ATOM      2  N   UNL     1     -22.577  15.292 -17.102  1.00  0.00    -0.213 NA
ATOM      3  C   UNL     1     -22.064  13.357 -16.031  1.00  0.00    +0.068 A 
ATOM      4  C   UNL     1     -23.016  14.352 -16.207  1.00  0.00    +0.091 A 
ATOM      5  C   UNL     1     -23.464  12.197 -14.486  1.00  0.00    +0.025 A 
ATOM      6  C   UNL     1     -22.243  12.266 -15.178  1.00  0.00    +0.040 A 
ATOM      7  C   UNL     1     -24.222  14.284 -15.494  1.00  0.00    +0.031 A 
ATOM      8  C   UNL     1     -24.433  13.202 -14.626  1.00  0.00    +0.014 A 
ATOM      9  C   UNL     1     -21.379  14.909 -17.474  1.00  0.00    +0.210 A 
ATOM     10  H   UNL     1     -20.157  13.247 -16.958  1.00  0.00    +0.170 HD
ENDROOT
BRANCH   5  11
ATOM     11  C   UNL     1     -23.669  11.047 -13.565  1.00  0.00    +0.193 C 
ATOM     12  O   UNL     1     -24.301  10.070 -13.961  1.00  0.00    -0.289 OA
BRANCH  11  13
ATOM     13  C   UNL     1     -23.137  11.053 -12.179  1.00  0.00    +0.022 A 
ATOM     14  C   UNL     1     -23.982  10.994 -11.065  1.00  0.00    +0.012 A 
ATOM     15  C   UNL     1     -21.748  11.073 -12.000  1.00  0.00    +0.012 A 
ATOM     16  C   UNL     1     -23.439  10.990  -9.779  1.00  0.00    +0.001 A 
ATOM     17  C   UNL     1     -21.210  11.068 -10.712  1.00  0.00    +0.001 A 
ATOM     18  C   UNL     1     -22.055  11.032  -9.604  1.00  0.00    +0.000 A 
ENDBRANCH  11  13
ENDBRANCH   5  11
BRANCH   9  19
ATOM     19  N   UNL     1     -20.519  15.511 -18.351  1.00  0.00    -0.261 N 
ATOM     20  C   UNL     1     -19.929  14.848 -19.389  1.00  0.00    +0.413 C 
ATOM     21  O   UNL     1     -20.036  13.677 -19.716  1.00  0.00    -0.224 OA
ATOM     22  H   UNL     1     -20.283  16.485 -18.267  1.00  0.00    +0.176 HD
BRANCH  20  23
ATOM     23  O   UNL     1     -19.147  15.746 -20.054  1.00  0.00    -0.453 OA
ATOM     24  C   UNL     1     -18.900  16.951 -19.326  1.00  0.00    +0.284 C 
ENDBRANCH  20  23
ENDBRANCH   9  19
TORSDOF 4
ENDMDL
MODEL 3
REMARK VINA RESULT:    -7.451      2.418      3.246
REMARK INTER + INTRA:         -10.053
REMARK INTER:                  -9.170
REMARK INTRA:                  -0.883
REMARK UNBOUND:                -0.859
REMARK SMILES COC(=O)Nc1nc2ccc(C(=O)c3ccccc3)cc2[nH]1
REMARK SMILES IDX 22 1 7 2 21 3 8 4 11 5 20 6 9 7 10 8 6 9 12 11 13 12 14 13
REMARK SMILES IDX 15 14 19 15 16 16 18 17 17 18 5 19 3 20 4 21 2 23 1 24
REMARK H PARENT 22 10 5 22
ROOT
ATOM      1  N   UNL     1     -25.664  13.856 -15.070  1.00  0.00    -0.324 N 
ATOM      2  N   UNL     1     -24.441  14.898 -16.582  1.00  0.00    -0.213 NA
ATOM      3  C   UNL     1     -24.432  13.257 -15.014  1.00  0.00    +0.068 A 
ATOM      4  C   UNL     1     -23.690  13.925 -15.979  1.00  0.00    +0.091 A 
ATOM      5  C   UNL     1     -22.579  11.862 -14.457  1.00  0.00    +0.025 A 
ATOM      6  C   UNL     1     -23.920  12.217 -14.235  1.00  0.00    +0.040 A 
ATOM      7  C   UNL     1     -22.359  13.546 -16.206  1.00  0.00    +0.031 A 
ATOM      8  C   UNL     1     -21.814  12.503 -15.443  1.00  0.00    +0.014 A 
ATOM      9  C   UNL     1     -25.627  14.842 -16.025  1.00  0.00    +0.210 A 
ATOM     10  H   UNL     1     -26.462  13.612 -14.504  1.00  0.00    +0.170 HD
ENDROOT
BRANCH   5  11
ATOM     11  C   UNL     1     -22.019  10.749 -13.644  1.00  0.00    +0.193 C 
ATOM     12  O   UNL     1     -21.251   9.950 -14.176  1.00  0.00    -0.289 OA
BRANCH  11  13
ATOM     13  C   UNL     1     -22.368  10.576 -12.212  1.00  0.00    +0.022 A 
ATOM     14  C   UNL     1     -23.322   9.641 -11.795  1.00  0.00    +0.012 A 
ATOM     15  C   UNL     1     -21.683  11.343 -11.262  1.00  0.00    +0.012 A 
ATOM     16  C   UNL     1     -23.612   9.502 -10.436  1.00  0.00    +0.001 A 
ATOM     17  C   UNL     1     -21.975  11.201  -9.905  1.00  0.00    +0.001 A 
ATOM     18  C   UNL     1     -22.942  10.284  -9.494  1.00  0.00    +0.000 A 
ENDBRANCH  11  13
ENDBRANCH   5  11
BRANCH   9  19
ATOM     19  N   UNL     1     -26.734  15.603 -16.282  1.00  0.00    -0.261 N 
ATOM     20  C   UNL     1     -27.504  16.154 -15.298  1.00  0.00    +0.413 C 
ATOM     21  O   UNL     1     -27.375  16.082 -14.087  1.00  0.00    -0.224 OA
ATOM     22  H   UNL     1     -27.031  15.793 -17.224  1.00  0.00    +0.176 HD
BRANCH  20  23
ATOM     23  O   UNL     1     -28.510  16.846 -15.908  1.00  0.00    -0.453 OA
ATOM     24  C   UNL     1     -29.526  16.014 -16.472  1.00  0.00    +0.284 C 
ENDBRANCH  20  23
ENDBRANCH   9  19
TORSDOF 4
ENDMDL
MODEL 4
REMARK VINA RESULT:    -7.294      2.984      3.896
REMARK INTER + INTRA:          -9.859
REMARK INTER:                  -9.294
REMARK INTRA:                  -0.566
REMARK UNBOUND:                -0.859
REMARK SMILES COC(=O)Nc1nc2ccc(C(=O)c3ccccc3)cc2[nH]1
REMARK SMILES IDX 22 1 7 2 21 3 8 4 11 5 20 6 9 7 10 8 6 9 12 11 13 12 14 13
REMARK SMILES IDX 15 14 19 15 16 16 18 17 17 18 5 19 3 20 4 21 2 23 1 24
REMARK H PARENT 22 10 5 22
ROOT
ATOM      1  N   UNL     1     -26.089  13.104 -13.399  1.00  0.00    -0.324 N 
ATOM      2  N   UNL     1     -24.637  13.859 -14.878  1.00  0.00    -0.213 NA
ATOM      3  C   UNL     1     -24.961  12.346 -13.217  1.00  0.00    +0.068 A 
ATOM      4  C   UNL     1     -24.071  12.836 -14.164  1.00  0.00    +0.091 A 
ATOM      5  C   UNL     1     -23.365  10.750 -12.443  1.00  0.00    +0.025 A 
ATOM      6  C   UNL     1     -24.654  11.302 -12.342  1.00  0.00    +0.040 A 
ATOM      7  C   UNL     1     -22.796  12.262 -14.270  1.00  0.00    +0.031 A 
ATOM      8  C   UNL     1     -22.455  11.210 -13.408  1.00  0.00    +0.014 A 
ATOM      9  C   UNL     1     -25.851  14.006 -14.406  1.00  0.00    +0.210 A 
ATOM     10  H   UNL     1     -26.949  13.013 -12.879  1.00  0.00    +0.170 HD
ENDROOT
BRANCH   5  11
ATOM     11  C   UNL     1     -23.023   9.631 -11.527  1.00  0.00    +0.193 C 
ATOM     12  O   UNL     1     -22.744   9.882 -10.356  1.00  0.00    -0.289 OA
BRANCH  11  13
ATOM     13  C   UNL     1     -23.001   8.221 -11.990  1.00  0.00    +0.022 A 
ATOM     14  C   UNL     1     -23.811   7.779 -13.043  1.00  0.00    +0.012 A 
ATOM     15  C   UNL     1     -22.110   7.332 -11.377  1.00  0.00    +0.012 A 
ATOM     16  C   UNL     1     -23.751   6.447 -13.456  1.00  0.00    +0.001 A 
ATOM     17  C   UNL     1     -22.053   6.001 -11.793  1.00  0.00    +0.001 A 
ATOM     18  C   UNL     1     -22.876   5.559 -12.829  1.00  0.00    +0.000 A 
ENDBRANCH  11  13
ENDBRANCH   5  11
BRANCH   9  19
ATOM     19  N   UNL     1     -26.819  14.893 -14.789  1.00  0.00    -0.261 N 
ATOM     20  C   UNL     1     -26.583  16.227 -14.956  1.00  0.00    +0.413 C 
ATOM     21  O   UNL     1     -25.546  16.852 -14.806  1.00  0.00    -0.224 OA
ATOM     22  H   UNL     1     -27.762  14.593 -14.967  1.00  0.00    +0.176 HD
BRANCH  20  23
ATOM     23  O   UNL     1     -27.759  16.804 -15.342  1.00  0.00    -0.453 OA
ATOM     24  C   UNL     1     -28.512  16.019 -16.269  1.00  0.00    +0.284 C 
ENDBRANCH  20  23
ENDBRANCH   9  19
TORSDOF 4
ENDMDL
MODEL 5
REMARK VINA RESULT:    -7.252      4.604      5.199
REMARK INTER + INTRA:          -9.807
REMARK INTER:                  -8.867
REMARK INTRA:                  -0.940
REMARK UNBOUND:                -0.859
REMARK SMILES COC(=O)Nc1nc2ccc(C(=O)c3ccccc3)cc2[nH]1
REMARK SMILES IDX 22 1 7 2 21 3 8 4 11 5 20 6 9 7 10 8 6 9 12 11 13 12 14 13
REMARK SMILES IDX 15 14 19 15 16 16 18 17 17 18 5 19 3 20 4 21 2 23 1 24
REMARK H PARENT 22 10 5 22
ROOT
ATOM      1  N   UNL     1     -20.464  13.268 -17.277  1.00  0.00    -0.324 N 
ATOM      2  N   UNL     1     -22.216  14.608 -17.212  1.00  0.00    -0.213 NA
ATOM      3  C   UNL     1     -21.280  12.750 -16.304  1.00  0.00    +0.068 A 
ATOM      4  C   UNL     1     -22.365  13.615 -16.280  1.00  0.00    +0.091 A 
ATOM      5  C   UNL     1     -22.222  11.412 -14.568  1.00  0.00    +0.025 A 
ATOM      6  C   UNL     1     -21.163  11.641 -15.463  1.00  0.00    +0.040 A 
ATOM      7  C   UNL     1     -23.404  13.389 -15.366  1.00  0.00    +0.031 A 
ATOM      8  C   UNL     1     -23.318  12.285 -14.505  1.00  0.00    +0.014 A 
ATOM      9  C   UNL     1     -21.066  14.385 -17.802  1.00  0.00    +0.210 A 
ATOM     10  H   UNL     1     -19.573  12.890 -17.558  1.00  0.00    +0.170 HD
ENDROOT
BRANCH   5  11
ATOM     11  C   UNL     1     -22.111  10.241 -13.657  1.00  0.00    +0.193 C 
ATOM     12  O   UNL     1     -21.777   9.153 -14.122  1.00  0.00    -0.289 OA
BRANCH  11  13
ATOM     13  C   UNL     1     -22.399  10.352 -12.205  1.00  0.00    +0.022 A 
ATOM     14  C   UNL     1     -21.589  11.105 -11.348  1.00  0.00    +0.012 A 
ATOM     15  C   UNL     1     -23.542   9.716 -11.703  1.00  0.00    +0.012 A 
ATOM     16  C   UNL     1     -21.903  11.192  -9.991  1.00  0.00    +0.001 A 
ATOM     17  C   UNL     1     -23.852   9.806 -10.346  1.00  0.00    +0.001 A 
ATOM     18  C   UNL     1     -23.031  10.540  -9.490  1.00  0.00    +0.000 A 
ENDBRANCH  11  13
ENDBRANCH   5  11
BRANCH   9  19
ATOM     19  N   UNL     1     -20.461  15.096 -18.801  1.00  0.00    -0.261 N 
ATOM     20  C   UNL     1     -20.072  14.536 -19.984  1.00  0.00    +0.413 C 
ATOM     21  O   UNL     1     -20.171  13.379 -20.359  1.00  0.00    -0.224 OA
ATOM     22  H   UNL     1     -20.276  16.080 -18.704  1.00  0.00    +0.176 HD
BRANCH  20  23
ATOM     23  O   UNL     1     -19.514  15.526 -20.740  1.00  0.00    -0.453 OA
ATOM     24  C   UNL     1     -18.906  16.567 -19.973  1.00  0.00    +0.284 C 
ENDBRANCH  20  23
ENDBRANCH   9  19
TORSDOF 4
ENDMDL
MODEL 6
REMARK VINA RESULT:    -7.188      3.005      7.896
REMARK INTER + INTRA:          -9.727
REMARK INTER:                  -8.895
REMARK INTRA:                  -0.833
REMARK UNBOUND:                -0.859
REMARK SMILES COC(=O)Nc1nc2ccc(C(=O)c3ccccc3)cc2[nH]1
REMARK SMILES IDX 22 1 7 2 21 3 8 4 11 5 20 6 9 7 10 8 6 9 12 11 13 12 14 13
REMARK SMILES IDX 15 14 19 15 16 16 18 17 17 18 5 19 3 20 4 21 2 23 1 24
REMARK H PARENT 22 10 5 22
ROOT
ATOM      1  N   UNL     1     -24.365  11.298 -13.312  1.00  0.00    -0.324 N 
ATOM      2  N   UNL     1     -25.306  11.409 -11.320  1.00  0.00    -0.213 NA
ATOM      3  C   UNL     1     -24.999  12.514 -13.279  1.00  0.00    +0.068 A 
ATOM      4  C   UNL     1     -25.587  12.551 -12.022  1.00  0.00    +0.091 A 
ATOM      5  C   UNL     1     -25.859  14.672 -13.820  1.00  0.00    +0.025 A 
ATOM      6  C   UNL     1     -25.114  13.547 -14.211  1.00  0.00    +0.040 A 
ATOM      7  C   UNL     1     -26.347  13.670 -11.652  1.00  0.00    +0.031 A 
ATOM      8  C   UNL     1     -26.485  14.725 -12.565  1.00  0.00    +0.014 A 
ATOM      9  C   UNL     1     -24.572  10.666 -12.111  1.00  0.00    +0.210 A 
ATOM     10  H   UNL     1     -23.837  10.932 -14.089  1.00  0.00    +0.170 HD
ENDROOT
BRANCH   5  11
ATOM     11  C   UNL     1     -26.002  15.778 -14.804  1.00  0.00    +0.193 C 
ATOM     12  O   UNL     1     -25.204  16.713 -14.770  1.00  0.00    -0.289 OA
BRANCH  11  13
ATOM     13  C   UNL     1     -27.085  15.786 -15.819  1.00  0.00    +0.022 A 
ATOM     14  C   UNL     1     -28.392  16.170 -15.499  1.00  0.00    +0.012 A 
ATOM     15  C   UNL     1     -26.764  15.440 -17.137  1.00  0.00    +0.012 A 
ATOM     16  C   UNL     1     -29.378  16.174 -16.487  1.00  0.00    +0.001 A 
ATOM     17  C   UNL     1     -27.753  15.446 -18.122  1.00  0.00    +0.001 A 
ATOM     18  C   UNL     1     -29.059  15.809 -17.795  1.00  0.00    +0.000 A 
ENDBRANCH  11  13
ENDBRANCH   5  11
BRANCH   9  19
ATOM     19  N   UNL     1     -24.039   9.428 -11.877  1.00  0.00    -0.261 N 
ATOM     20  C   UNL     1     -22.698   9.206 -11.748  1.00  0.00    +0.413 C 
ATOM     21  O   UNL     1     -21.775  10.001 -11.815  1.00  0.00    -0.224 OA
ATOM     22  H   UNL     1     -24.625   8.615 -11.788  1.00  0.00    +0.176 HD
BRANCH  20  23
ATOM     23  O   UNL     1     -22.526   7.872 -11.519  1.00  0.00    -0.453 OA
ATOM     24  C   UNL     1     -21.583   7.250 -12.394  1.00  0.00    +0.284 C 
ENDBRANCH  20  23
ENDBRANCH   9  19
TORSDOF 4
ENDMDL
MODEL 7
REMARK VINA RESULT:    -7.069      4.242      5.462
REMARK INTER + INTRA:          -9.581
REMARK INTER:                  -8.801
REMARK INTRA:                  -0.780
REMARK UNBOUND:                -0.859
REMARK SMILES COC(=O)Nc1nc2ccc(C(=O)c3ccccc3)cc2[nH]1
REMARK SMILES IDX 22 1 7 2 21 3 8 4 11 5 20 6 9 7 10 8 6 9 12 11 13 12 14 13
REMARK SMILES IDX 15 14 19 15 16 16 18 17 17 18 5 19 3 20 4 21 2 23 1 24
REMARK H PARENT 22 10 5 22
ROOT
ATOM      1  N   UNL     1     -24.675  11.487 -13.487  1.00  0.00    -0.324 N 
ATOM      2  N   UNL     1     -25.296  11.970 -11.425  1.00  0.00    -0.213 NA
ATOM      3  C   UNL     1     -24.067  10.546 -12.697  1.00  0.00    +0.068 A 
ATOM      4  C   UNL     1     -24.467  10.879 -11.410  1.00  0.00    +0.091 A 
ATOM      5  C   UNL     1     -22.783   8.703 -11.894  1.00  0.00    +0.025 A 
ATOM      6  C   UNL     1     -23.222   9.472 -12.985  1.00  0.00    +0.040 A 
ATOM      7  C   UNL     1     -24.004  10.117 -10.327  1.00  0.00    +0.031 A 
ATOM      8  C   UNL     1     -23.152   9.032 -10.581  1.00  0.00    +0.014 A 
ATOM      9  C   UNL     1     -25.409  12.324 -12.683  1.00  0.00    +0.210 A 
ATOM     10  H   UNL     1     -24.596  11.553 -14.490  1.00  0.00    +0.170 HD
ENDROOT
BRANCH   5  11
ATOM     11  C   UNL     1     -21.873   7.561 -12.179  1.00  0.00    +0.193 C 
ATOM     12  O   UNL     1     -20.663   7.765 -12.250  1.00  0.00    -0.289 OA
BRANCH  11  13
ATOM     13  C   UNL     1     -22.390   6.185 -12.388  1.00  0.00    +0.022 A 
ATOM     14  C   UNL     1     -21.850   5.085 -11.712  1.00  0.00    +0.012 A 
ATOM     15  C   UNL     1     -23.475   6.006 -13.255  1.00  0.00    +0.012 A 
ATOM     16  C   UNL     1     -22.374   3.809 -11.929  1.00  0.00    +0.001 A 
ATOM     17  C   UNL     1     -23.995   4.729 -13.469  1.00  0.00    +0.001 A 
ATOM     18  C   UNL     1     -23.441   3.631 -12.810  1.00  0.00    +0.000 A 
ENDBRANCH  11  13
ENDBRANCH   5  11
BRANCH   9  19
ATOM     19  N   UNL     1     -26.124  13.357 -13.223  1.00  0.00    -0.261 N 
ATOM     20  C   UNL     1     -25.640  14.157 -14.218  1.00  0.00    +0.413 C 
ATOM     21  O   UNL     1     -24.558  14.121 -14.780  1.00  0.00    -0.224 OA
ATOM     22  H   UNL     1     -27.053  13.573 -12.904  1.00  0.00    +0.176 HD
BRANCH  20  23
ATOM     23  O   UNL     1     -26.610  15.070 -14.514  1.00  0.00    -0.453 OA
ATOM     24  C   UNL     1     -26.104  16.323 -14.981  1.00  0.00    +0.284 C 
ENDBRANCH  20  23
ENDBRANCH   9  19
TORSDOF 4
ENDMDL
MODEL 8
REMARK VINA RESULT:    -7.059      6.720      9.681
REMARK INTER + INTRA:          -9.568
REMARK INTER:                  -8.768
REMARK INTRA:                  -0.800
REMARK UNBOUND:                -0.859
REMARK SMILES COC(=O)Nc1nc2ccc(C(=O)c3ccccc3)cc2[nH]1
REMARK SMILES IDX 22 1 7 2 21 3 8 4 11 5 20 6 9 7 10 8 6 9 12 11 13 12 14 13
REMARK SMILES IDX 15 14 19 15 16 16 18 17 17 18 5 19 3 20 4 21 2 23 1 24
REMARK H PARENT 22 10 5 22
ROOT
ATOM      1  N   UNL     1     -21.149  12.934 -16.078  1.00  0.00    -0.324 N 
ATOM      2  N   UNL     1     -20.729  10.866 -16.722  1.00  0.00    -0.213 NA
ATOM      3  C   UNL     1     -20.706  13.041 -17.372  1.00  0.00    +0.068 A 
ATOM      4  C   UNL     1     -20.442  11.730 -17.746  1.00  0.00    +0.091 A 
ATOM      5  C   UNL     1     -20.033  13.858 -19.510  1.00  0.00    +0.025 A 
ATOM      6  C   UNL     1     -20.511  14.135 -18.217  1.00  0.00    +0.040 A 
ATOM      7  C   UNL     1     -19.945  11.469 -19.031  1.00  0.00    +0.031 A 
ATOM      8  C   UNL     1     -19.735  12.545 -19.905  1.00  0.00    +0.014 A 
ATOM      9  C   UNL     1     -21.151  11.607 -15.726  1.00  0.00    +0.210 A 
ATOM     10  H   UNL     1     -21.426  13.702 -15.487  1.00  0.00    +0.170 HD
ENDROOT
BRANCH   5  11
ATOM     11  C   UNL     1     -19.809  15.011 -20.422  1.00  0.00    +0.193 C 
ATOM     12  O   UNL     1     -20.538  15.147 -21.403  1.00  0.00    -0.289 OA
BRANCH  11  13
ATOM     13  C   UNL     1     -18.725  15.996 -20.183  1.00  0.00    +0.022 A 
ATOM     14  C   UNL     1     -17.480  15.890 -20.814  1.00  0.00    +0.012 A 
ATOM     15  C   UNL     1     -18.985  17.080 -19.335  1.00  0.00    +0.012 A 
ATOM     16  C   UNL     1     -16.492  16.845 -20.569  1.00  0.00    +0.001 A 
ATOM     17  C   UNL     1     -17.994  18.033 -19.095  1.00  0.00    +0.001 A 
ATOM     18  C   UNL     1     -16.748  17.913 -19.708  1.00  0.00    +0.000 A 
ENDBRANCH  11  13
ENDBRANCH   5  11
BRANCH   9  19
ATOM     19  N   UNL     1     -21.556  11.220 -14.479  1.00  0.00    -0.261 N 
ATOM     20  C   UNL     1     -22.627  11.774 -13.838  1.00  0.00    +0.413 C 
ATOM     21  O   UNL     1     -23.377  12.660 -14.214  1.00  0.00    -0.224 OA
ATOM     22  H   UNL     1     -21.075  10.496 -13.974  1.00  0.00    +0.176 HD
BRANCH  20  23
ATOM     23  O   UNL     1     -22.746  11.151 -12.630  1.00  0.00    -0.453 OA
ATOM     24  C   UNL     1     -21.556  11.190 -11.838  1.00  0.00    +0.284 C 
ENDBRANCH  20  23
ENDBRANCH   9  19
TORSDOF 4
ENDMDL
MODEL 9
REMARK VINA RESULT:    -7.051      6.459      9.462
REMARK INTER + INTRA:          -9.559
REMARK INTER:                  -8.682
REMARK INTRA:                  -0.878
REMARK UNBOUND:                -0.859
REMARK SMILES COC(=O)Nc1nc2ccc(C(=O)c3ccccc3)cc2[nH]1
REMARK SMILES IDX 22 1 7 2 21 3 8 4 11 5 20 6 9 7 10 8 6 9 12 11 13 12 14 13
REMARK SMILES IDX 15 14 19 15 16 16 18 17 17 18 5 19 3 20 4 21 2 23 1 24
REMARK H PARENT 22 10 5 22
ROOT
ATOM      1  N   UNL     1     -23.269   5.009 -13.047  1.00  0.00    -0.324 N 
ATOM      2  N   UNL     1     -25.135   4.548 -14.130  1.00  0.00    -0.213 NA
ATOM      3  C   UNL     1     -23.818   6.227 -13.356  1.00  0.00    +0.068 A 
ATOM      4  C   UNL     1     -24.982   5.906 -14.042  1.00  0.00    +0.091 A 
ATOM      5  C   UNL     1     -24.245   8.563 -13.587  1.00  0.00    +0.025 A 
ATOM      6  C   UNL     1     -23.408   7.539 -13.111  1.00  0.00    +0.040 A 
ATOM      7  C   UNL     1     -25.797   6.937 -14.531  1.00  0.00    +0.031 A 
ATOM      8  C   UNL     1     -25.414   8.267 -14.305  1.00  0.00    +0.014 A 
ATOM      9  C   UNL     1     -24.095   4.024 -13.528  1.00  0.00    +0.210 A 
ATOM     10  H   UNL     1     -22.403   4.864 -12.550  1.00  0.00    +0.170 HD
ENDROOT
BRANCH   5  11
ATOM     11  C   UNL     1     -23.820   9.967 -13.345  1.00  0.00    +0.193 C 
ATOM     12  O   UNL     1     -24.007  10.807 -14.224  1.00  0.00    -0.289 OA
BRANCH  11  13
ATOM     13  C   UNL     1     -23.169  10.379 -12.077  1.00  0.00    +0.022 A 
ATOM     14  C   UNL     1     -21.822  10.755 -12.028  1.00  0.00    +0.012 A 
ATOM     15  C   UNL     1     -23.949  10.429 -10.915  1.00  0.00    +0.012 A 
ATOM     16  C   UNL     1     -21.252  11.147 -10.815  1.00  0.00    +0.001 A 
ATOM     17  C   UNL     1     -23.375  10.822  -9.704  1.00  0.00    +0.001 A 
ATOM     18  C   UNL     1     -22.027  11.176  -9.655  1.00  0.00    +0.000 A 
ENDBRANCH  11  13
ENDBRANCH   5  11
BRANCH   9  19
ATOM     19  N   UNL     1     -23.780   2.705 -13.349  1.00  0.00    -0.261 N 
ATOM     20  C   UNL     1     -22.529   2.201 -13.566  1.00  0.00    +0.413 C 
ATOM     21  O   UNL     1     -21.520   2.777 -13.938  1.00  0.00    -0.224 OA
ATOM     22  H   UNL     1     -24.469   2.039 -13.044  1.00  0.00    +0.176 HD
BRANCH  20  23
ATOM     23  O   UNL     1     -22.574   0.866 -13.289  1.00  0.00    -0.453 OA
ATOM     24  C   UNL     1     -21.623   0.089 -14.021  1.00  0.00    +0.284 C 
ENDBRANCH  20  23
ENDBRANCH   9  19
TORSDOF 4
ENDMDL
