MODEL 1
REMARK VINA RESULT:    -8.419      0.000      0.000
REMARK INTER + INTRA:         -11.197
REMARK INTER:                 -10.388
REMARK INTRA:                  -0.809
REMARK UNBOUND:                -0.809
REMARK SMILES COC(=O)Nc1nc2ccc(C(=O)c3ccccc3)cc2[nH]1
REMARK SMILES IDX 22 1 7 2 21 3 8 4 11 5 20 6 9 7 10 8 6 9 12 11 13 12 14 13
REMARK SMILES IDX 15 14 19 15 16 16 18 17 17 18 5 19 3 20 4 21 2 23 1 24
REMARK H PARENT 22 10 5 22
ROOT
ATOM      1  N   UNL     1       9.588  71.351  16.423  1.00  0.00    -0.324 N 
ATOM      2  N   UNL     1       8.307  69.566  16.218  1.00  0.00    -0.213 NA
ATOM      3  C   UNL     1      10.159  70.610  15.420  1.00  0.00    +0.068 A 
ATOM      4  C   UNL     1       9.339  69.493  15.320  1.00  0.00    +0.091 A 
ATOM      5  C   UNL     1      11.575  69.812  13.674  1.00  0.00    +0.025 A 
ATOM      6  C   UNL     1      11.288  70.807  14.624  1.00  0.00    +0.040 A 
ATOM      7  C   UNL     1       9.648  68.496  14.384  1.00  0.00    +0.031 A 
ATOM      8  C   UNL     1      10.778  68.661  13.569  1.00  0.00    +0.014 A 
ATOM      9  C   UNL     1       8.473  70.689  16.874  1.00  0.00    +0.210 A 
ATOM     10  H   UNL     1       9.931  72.233  16.770  1.00  0.00    +0.170 HD
ENDROOT
BRANCH   5  11
ATOM     11  C   UNL     1      12.780  69.999  12.823  1.00  0.00    +0.193 C 
ATOM     12  O   UNL     1      12.658  70.544  11.728  1.00  0.00    -0.289 OA
BRANCH  11  13
ATOM     13  C   UNL     1      14.122  69.539  13.259  1.00  0.00    +0.022 A 
ATOM     14  C   UNL     1      14.412  69.281  14.604  1.00  0.00    +0.012 A 
ATOM     15  C   UNL     1      15.100  69.318  12.281  1.00  0.00    +0.012 A 
ATOM     16  C   UNL     1      15.685  68.838  14.968  1.00  0.00    +0.001 A 
ATOM     17  C   UNL     1      16.370  68.875  12.650  1.00  0.00    +0.001 A 
ATOM     18  C   UNL     1      16.663  68.640  13.993  1.00  0.00    +0.000 A 
ENDBRANCH  11  13
ENDBRANCH   5  11
BRANCH   9  19
ATOM     19  N   UNL     1       7.710  71.217  17.879  1.00  0.00    -0.261 N 
ATOM     20  C   UNL     1       8.195  71.470  19.130  1.00  0.00    +0.413 C 
ATOM     21  O   UNL     1       9.317  71.286  19.573  1.00  0.00    -0.224 OA
ATOM     22  H   UNL     1       6.741  71.447  17.734  1.00  0.00    +0.176 HD
BRANCH  20  23
ATOM     23  O   UNL     1       7.173  71.994  19.866  1.00  0.00    -0.453 OA
ATOM     24  C   UNL     1       5.904  71.949  19.210  1.00  0.00    +0.284 C 
ENDBRANCH  20  23
ENDBRANCH   9  19
TORSDOF 4
ENDMDL
MODEL 2
REMARK VINA RESULT:    -8.091      2.497      3.081
REMARK INTER + INTRA:         -10.792
REMARK INTER:                 -10.186
REMARK INTRA:                  -0.605
REMARK UNBOUND:                -0.809
REMARK SMILES COC(=O)Nc1nc2ccc(C(=O)c3ccccc3)cc2[nH]1
REMARK SMILES IDX 22 1 7 2 21 3 8 4 11 5 20 6 9 7 10 8 6 9 12 11 13 12 14 13
REMARK SMILES IDX 15 14 19 15 16 16 18 17 17 18 5 19 3 20 4 21 2 23 1 24
REMARK H PARENT 22 10 5 22
ROOT
ATOM      1  N   UNL     1       9.721  69.772  18.294  1.00  0.00    -0.324 N 
ATOM      2  N   UNL     1       9.325  71.429  16.892  1.00  0.00    -0.213 NA
ATOM      3  C   UNL     1      10.928  70.041  17.701  1.00  0.00    +0.068 A 
ATOM      4  C   UNL     1      10.647  71.078  16.821  1.00  0.00    +0.091 A 
ATOM      5  C   UNL     1      13.225  70.025  17.054  1.00  0.00    +0.025 A 
ATOM      6  C   UNL     1      12.199  69.480  17.846  1.00  0.00    +0.040 A 
ATOM      7  C   UNL     1      11.674  71.598  16.021  1.00  0.00    +0.031 A 
ATOM      8  C   UNL     1      12.963  71.056  16.140  1.00  0.00    +0.014 A 
ATOM      9  C   UNL     1       8.782  70.633  17.781  1.00  0.00    +0.210 A 
ATOM     10  H   UNL     1       9.553  69.061  18.988  1.00  0.00    +0.170 HD
ENDROOT
BRANCH   5  11
ATOM     11  C   UNL     1      14.583  69.434  17.187  1.00  0.00    +0.193 C 
ATOM     12  O   UNL     1      14.967  69.063  18.294  1.00  0.00    -0.289 OA
BRANCH  11  13
ATOM     13  C   UNL     1      15.488  69.288  16.020  1.00  0.00    +0.022 A 
ATOM     14  C   UNL     1      15.073  68.658  14.840  1.00  0.00    +0.012 A 
ATOM     15  C   UNL     1      16.772  69.840  16.100  1.00  0.00    +0.012 A 
ATOM     16  C   UNL     1      15.953  68.553  13.762  1.00  0.00    +0.001 A 
ATOM     17  C   UNL     1      17.648  69.732  15.018  1.00  0.00    +0.001 A 
ATOM     18  C   UNL     1      17.240  69.085  13.853  1.00  0.00    +0.000 A 
ENDBRANCH  11  13
ENDBRANCH   5  11
BRANCH   9  19
ATOM     19  N   UNL     1       7.484  70.580  18.209  1.00  0.00    -0.261 N 
ATOM     20  C   UNL     1       6.939  71.507  19.050  1.00  0.00    +0.413 C 
ATOM     21  O   UNL     1       7.458  72.489  19.556  1.00  0.00    -0.224 OA
ATOM     22  H   UNL     1       6.866  69.844  17.914  1.00  0.00    +0.176 HD
BRANCH  20  23
ATOM     23  O   UNL     1       5.639  71.151  19.261  1.00  0.00    -0.453 OA
ATOM     24  C   UNL     1       4.693  72.136  18.838  1.00  0.00    +0.284 C 
ENDBRANCH  20  23
ENDBRANCH   9  19
TORSDOF 4
ENDMDL
MODEL 3
REMARK VINA RESULT:    -7.840      2.347      3.019
REMARK INTER + INTRA:         -10.482
REMARK INTER:                  -9.603
REMARK INTRA:                  -0.879
REMARK UNBOUND:                -0.809
REMARK SMILES COC(=O)Nc1nc2ccc(C(=O)c3ccccc3)cc2[nH]1
REMARK SMILES IDX 22 1 7 2 21 3 8 4 11 5 20 6 9 7 10 8 6 9 12 11 13 12 14 13
REMARK SMILES IDX 15 14 19 15 16 16 18 17 17 18 5 19 3 20 4 21 2 23 1 24
REMARK H PARENT 22 10 5 22
ROOT
ATOM      1  N   UNL     1       8.921  71.347  17.665  1.00  0.00    -0.324 N 
ATOM      2  N   UNL     1       9.019  69.661  19.085  1.00  0.00    -0.213 NA
ATOM      3  C   UNL     1      10.234  70.951  17.667  1.00  0.00    +0.068 A 
ATOM      4  C   UNL     1      10.266  69.899  18.572  1.00  0.00    +0.091 A 
ATOM      5  C   UNL     1      12.573  70.747  17.242  1.00  0.00    +0.025 A 
ATOM      6  C   UNL     1      11.362  71.412  16.985  1.00  0.00    +0.040 A 
ATOM      7  C   UNL     1      11.485  69.258  18.837  1.00  0.00    +0.031 A 
ATOM      8  C   UNL     1      12.638  69.697  18.171  1.00  0.00    +0.014 A 
ATOM      9  C   UNL     1       8.222  70.542  18.530  1.00  0.00    +0.210 A 
ATOM     10  H   UNL     1       8.536  72.102  17.120  1.00  0.00    +0.170 HD
ENDROOT
BRANCH   5  11
ATOM     11  C   UNL     1      13.787  71.231  16.533  1.00  0.00    +0.193 C 
ATOM     12  O   UNL     1      14.109  72.413  16.638  1.00  0.00    -0.289 OA
BRANCH  11  13
ATOM     13  C   UNL     1      14.615  70.326  15.697  1.00  0.00    +0.022 A 
ATOM     14  C   UNL     1      14.087  69.667  14.580  1.00  0.00    +0.012 A 
ATOM     15  C   UNL     1      15.969  70.174  16.020  1.00  0.00    +0.012 A 
ATOM     16  C   UNL     1      14.905  68.834  13.814  1.00  0.00    +0.001 A 
ATOM     17  C   UNL     1      16.782  69.341  15.250  1.00  0.00    +0.001 A 
ATOM     18  C   UNL     1      16.249  68.668  14.151  1.00  0.00    +0.000 A 
ENDBRANCH  11  13
ENDBRANCH   5  11
BRANCH   9  19
ATOM     19  N   UNL     1       6.879  70.721  18.715  1.00  0.00    -0.261 N 
ATOM     20  C   UNL     1       6.347  71.853  19.263  1.00  0.00    +0.413 C 
ATOM     21  O   UNL     1       6.915  72.852  19.671  1.00  0.00    -0.224 OA
ATOM     22  H   UNL     1       6.215  70.014  18.448  1.00  0.00    +0.176 HD
BRANCH  20  23
ATOM     23  O   UNL     1       4.991  71.694  19.291  1.00  0.00    -0.453 OA
ATOM     24  C   UNL     1       4.316  72.281  18.177  1.00  0.00    +0.284 C 
ENDBRANCH  20  23
ENDBRANCH   9  19
TORSDOF 4
ENDMDL
MODEL 4
REMARK VINA RESULT:    -7.811      1.662      2.335
REMARK INTER + INTRA:         -10.447
REMARK INTER:                 -10.076
REMARK INTRA:                  -0.370
REMARK UNBOUND:                -0.809
REMARK SMILES COC(=O)Nc1nc2ccc(C(=O)c3ccccc3)cc2[nH]1
REMARK SMILES IDX 22 1 7 2 21 3 8 4 11 5 20 6 9 7 10 8 6 9 12 11 13 12 14 13
REMARK SMILES IDX 15 14 19 15 16 16 18 17 17 18 5 19 3 20 4 21 2 23 1 24
REMARK H PARENT 22 10 5 22
ROOT
ATOM      1  N   UNL     1      10.278  70.701  16.212  1.00  0.00    -0.324 N 
ATOM      2  N   UNL     1       8.977  69.493  14.902  1.00  0.00    -0.213 NA
ATOM      3  C   UNL     1      11.133  70.016  15.387  1.00  0.00    +0.068 A 
ATOM      4  C   UNL     1      10.289  69.261  14.583  1.00  0.00    +0.091 A 
ATOM      5  C   UNL     1      13.066  69.143  14.295  1.00  0.00    +0.025 A 
ATOM      6  C   UNL     1      12.525  69.984  15.282  1.00  0.00    +0.040 A 
ATOM      7  C   UNL     1      10.842  68.409  13.616  1.00  0.00    +0.031 A 
ATOM      8  C   UNL     1      12.237  68.351  13.486  1.00  0.00    +0.014 A 
ATOM      9  C   UNL     1       8.989  70.361  15.885  1.00  0.00    +0.210 A 
ATOM     10  H   UNL     1      10.553  71.346  16.937  1.00  0.00    +0.170 HD
ENDROOT
BRANCH   5  11
ATOM     11  C   UNL     1      14.547  69.088  14.175  1.00  0.00    +0.193 C 
ATOM     12  O   UNL     1      15.053  69.003  13.057  1.00  0.00    -0.289 OA
BRANCH  11  13
ATOM     13  C   UNL     1      15.429  69.126  15.368  1.00  0.00    +0.022 A 
ATOM     14  C   UNL     1      16.754  69.570  15.291  1.00  0.00    +0.012 A 
ATOM     15  C   UNL     1      14.892  68.747  16.604  1.00  0.00    +0.012 A 
ATOM     16  C   UNL     1      17.546  69.601  16.440  1.00  0.00    +0.001 A 
ATOM     17  C   UNL     1      15.687  68.780  17.751  1.00  0.00    +0.001 A 
ATOM     18  C   UNL     1      17.014  69.202  17.668  1.00  0.00    +0.000 A 
ENDBRANCH  11  13
ENDBRANCH   5  11
BRANCH   9  19
ATOM     19  N   UNL     1       7.933  70.910  16.558  1.00  0.00    -0.261 N 
ATOM     20  C   UNL     1       7.873  70.980  17.921  1.00  0.00    +0.413 C 
ATOM     21  O   UNL     1       8.681  70.593  18.749  1.00  0.00    -0.224 OA
ATOM     22  H   UNL     1       7.143  71.294  16.068  1.00  0.00    +0.176 HD
BRANCH  20  23
ATOM     23  O   UNL     1       6.695  71.587  18.246  1.00  0.00    -0.453 OA
ATOM     24  C   UNL     1       6.609  71.990  19.614  1.00  0.00    +0.284 C 
ENDBRANCH  20  23
ENDBRANCH   9  19
TORSDOF 4
ENDMDL
MODEL 5
REMARK VINA RESULT:    -7.787      1.241      1.911
REMARK INTER + INTRA:         -10.417
REMARK INTER:                 -10.424
REMARK INTRA:                   0.007
REMARK UNBOUND:                -0.809
REMARK SMILES COC(=O)Nc1nc2ccc(C(=O)c3ccccc3)cc2[nH]1
REMARK SMILES IDX 22 1 7 2 21 3 8 4 11 5 20 6 9 7 10 8 6 9 12 11 13 12 14 13
REMARK SMILES IDX 15 14 19 15 16 16 18 17 17 18 5 19 3 20 4 21 2 23 1 24
REMARK H PARENT 22 10 5 22
ROOT
ATOM      1  N   UNL     1       9.005  69.778  16.376  1.00  0.00    -0.324 N 
ATOM      2  N   UNL     1       9.569  71.629  17.436  1.00  0.00    -0.213 NA
ATOM      3  C   UNL     1      10.280  70.060  15.957  1.00  0.00    +0.068 A 
ATOM      4  C   UNL     1      10.604  71.230  16.631  1.00  0.00    +0.091 A 
ATOM      5  C   UNL     1      12.409  70.011  14.881  1.00  0.00    +0.025 A 
ATOM      6  C   UNL     1      11.148  69.420  15.070  1.00  0.00    +0.040 A 
ATOM      7  C   UNL     1      11.857  71.821  16.418  1.00  0.00    +0.031 A 
ATOM      8  C   UNL     1      12.752  71.206  15.531  1.00  0.00    +0.014 A 
ATOM      9  C   UNL     1       8.615  70.745  17.268  1.00  0.00    +0.210 A 
ATOM     10  H   UNL     1       8.449  68.992  16.077  1.00  0.00    +0.170 HD
ENDROOT
BRANCH   5  11
ATOM     11  C   UNL     1      13.343  69.349  13.932  1.00  0.00    +0.193 C 
ATOM     12  O   UNL     1      12.895  68.862  12.896  1.00  0.00    -0.289 OA
BRANCH  11  13
ATOM     13  C   UNL     1      14.799  69.257  14.205  1.00  0.00    +0.022 A 
ATOM     14  C   UNL     1      15.313  69.359  15.503  1.00  0.00    +0.012 A 
ATOM     15  C   UNL     1      15.665  69.018  13.131  1.00  0.00    +0.012 A 
ATOM     16  C   UNL     1      16.688  69.254  15.718  1.00  0.00    +0.001 A 
ATOM     17  C   UNL     1      17.039  68.915  13.350  1.00  0.00    +0.001 A 
ATOM     18  C   UNL     1      17.550  69.037  14.642  1.00  0.00    +0.000 A 
ENDBRANCH  11  13
ENDBRANCH   5  11
BRANCH   9  19
ATOM     19  N   UNL     1       7.377  70.699  17.846  1.00  0.00    -0.261 N 
ATOM     20  C   UNL     1       7.019  71.484  18.905  1.00  0.00    +0.413 C 
ATOM     21  O   UNL     1       7.678  72.315  19.506  1.00  0.00    -0.224 OA
ATOM     22  H   UNL     1       6.665  70.075  17.508  1.00  0.00    +0.176 HD
BRANCH  20  23
ATOM     23  O   UNL     1       5.725  71.182  19.217  1.00  0.00    -0.453 OA
ATOM     24  C   UNL     1       4.846  72.309  19.196  1.00  0.00    +0.284 C 
ENDBRANCH  20  23
ENDBRANCH   9  19
TORSDOF 4
ENDMDL
MODEL 6
REMARK VINA RESULT:    -7.726      2.398      3.225
REMARK INTER + INTRA:         -10.341
REMARK INTER:                  -9.557
REMARK INTRA:                  -0.784
REMARK UNBOUND:                -0.809
REMARK SMILES COC(=O)Nc1nc2ccc(C(=O)c3ccccc3)cc2[nH]1
REMARK SMILES IDX 22 1 7 2 21 3 8 4 11 5 20 6 9 7 10 8 6 9 12 11 13 12 14 13
REMARK SMILES IDX 15 14 19 15 16 16 18 17 17 18 5 19 3 20 4 21 2 23 1 24
REMARK H PARENT 22 10 5 22
ROOT
ATOM      1  N   UNL     1      10.424  73.148  18.110  1.00  0.00    -0.324 N 
ATOM      2  N   UNL     1       8.989  71.724  18.995  1.00  0.00    -0.213 NA
ATOM      3  C   UNL     1      10.274  72.157  17.174  1.00  0.00    +0.068 A 
ATOM      4  C   UNL     1       9.376  71.275  17.760  1.00  0.00    +0.091 A 
ATOM      5  C   UNL     1      10.438  70.799  15.219  1.00  0.00    +0.025 A 
ATOM      6  C   UNL     1      10.834  71.957  15.911  1.00  0.00    +0.040 A 
ATOM      7  C   UNL     1       9.006  70.112  17.069  1.00  0.00    +0.031 A 
ATOM      8  C   UNL     1       9.552  69.879  15.798  1.00  0.00    +0.014 A 
ATOM      9  C   UNL     1       9.630  72.851  19.190  1.00  0.00    +0.210 A 
ATOM     10  H   UNL     1      11.017  73.958  18.019  1.00  0.00    +0.170 HD
ENDROOT
BRANCH   5  11
ATOM     11  C   UNL     1      11.032  70.563  13.876  1.00  0.00    +0.193 C 
ATOM     12  O   UNL     1      10.380  70.856  12.876  1.00  0.00    -0.289 OA
BRANCH  11  13
ATOM     13  C   UNL     1      12.386  69.978  13.714  1.00  0.00    +0.022 A 
ATOM     14  C   UNL     1      13.019  69.922  12.467  1.00  0.00    +0.012 A 
ATOM     15  C   UNL     1      13.052  69.514  14.854  1.00  0.00    +0.012 A 
ATOM     16  C   UNL     1      14.299  69.373  12.360  1.00  0.00    +0.001 A 
ATOM     17  C   UNL     1      14.332  68.967  14.743  1.00  0.00    +0.001 A 
ATOM     18  C   UNL     1      14.952  68.893  13.496  1.00  0.00    +0.000 A 
ENDBRANCH  11  13
ENDBRANCH   5  11
BRANCH   9  19
ATOM     19  N   UNL     1       9.588  73.686  20.273  1.00  0.00    -0.261 N 
ATOM     20  C   UNL     1       9.090  74.956  20.216  1.00  0.00    +0.413 C 
ATOM     21  O   UNL     1       8.623  75.559  19.263  1.00  0.00    -0.224 OA
ATOM     22  H   UNL     1       9.928  73.392  21.173  1.00  0.00    +0.176 HD
BRANCH  20  23
ATOM     23  O   UNL     1       9.199  75.493  21.465  1.00  0.00    -0.453 OA
ATOM     24  C   UNL     1      10.240  74.915  22.256  1.00  0.00    +0.284 C 
ENDBRANCH  20  23
ENDBRANCH   9  19
TORSDOF 4
ENDMDL
MODEL 7
REMARK VINA RESULT:    -7.709      3.738      5.900
REMARK INTER + INTRA:         -10.321
REMARK INTER:                  -9.640
REMARK INTRA:                  -0.681
REMARK UNBOUND:                -0.809
REMARK SMILES COC(=O)Nc1nc2ccc(C(=O)c3ccccc3)cc2[nH]1
REMARK SMILES IDX 22 1 7 2 21 3 8 4 11 5 20 6 9 7 10 8 6 9 12 11 13 12 14 13
REMARK SMILES IDX 15 14 19 15 16 16 18 17 17 18 5 19 3 20 4 21 2 23 1 24
REMARK H PARENT 22 10 5 22
ROOT
ATOM      1  N   UNL     1      13.357  69.633  15.709  1.00  0.00    -0.324 N 
ATOM      2  N   UNL     1      13.318  68.751  13.687  1.00  0.00    -0.213 NA
ATOM      3  C   UNL     1      14.673  69.507  15.345  1.00  0.00    +0.068 A 
ATOM      4  C   UNL     1      14.617  68.944  14.077  1.00  0.00    +0.091 A 
ATOM      5  C   UNL     1      17.058  69.545  15.297  1.00  0.00    +0.025 A 
ATOM      6  C   UNL     1      15.869  69.818  15.995  1.00  0.00    +0.040 A 
ATOM      7  C   UNL     1      15.811  68.655  13.400  1.00  0.00    +0.031 A 
ATOM      8  C   UNL     1      17.031  68.953  14.025  1.00  0.00    +0.014 A 
ATOM      9  C   UNL     1      12.573  69.170  14.682  1.00  0.00    +0.210 A 
ATOM     10  H   UNL     1      13.023  70.003  16.586  1.00  0.00    +0.170 HD
ENDROOT
BRANCH   5  11
ATOM     11  C   UNL     1      18.342  69.859  15.978  1.00  0.00    +0.193 C 
ATOM     12  O   UNL     1      18.960  70.870  15.649  1.00  0.00    -0.289 OA
BRANCH  11  13
ATOM     13  C   UNL     1      18.900  68.981  17.037  1.00  0.00    +0.022 A 
ATOM     14  C   UNL     1      19.677  67.859  16.729  1.00  0.00    +0.012 A 
ATOM     15  C   UNL     1      18.670  69.324  18.375  1.00  0.00    +0.012 A 
ATOM     16  C   UNL     1      20.193  67.067  17.757  1.00  0.00    +0.001 A 
ATOM     17  C   UNL     1      19.188  68.530  19.399  1.00  0.00    +0.001 A 
ATOM     18  C   UNL     1      19.944  67.400  19.090  1.00  0.00    +0.000 A 
ENDBRANCH  11  13
ENDBRANCH   5  11
BRANCH   9  19
ATOM     19  N   UNL     1      11.210  69.186  14.785  1.00  0.00    -0.261 N 
ATOM     20  C   UNL     1      10.417  70.025  14.056  1.00  0.00    +0.413 C 
ATOM     21  O   UNL     1      10.737  70.867  13.232  1.00  0.00    -0.224 OA
ATOM     22  H   UNL     1      10.725  68.569  15.414  1.00  0.00    +0.176 HD
BRANCH  20  23
ATOM     23  O   UNL     1       9.123  69.770  14.405  1.00  0.00    -0.453 OA
ATOM     24  C   UNL     1       8.899  69.737  15.817  1.00  0.00    +0.284 C 
ENDBRANCH  20  23
ENDBRANCH   9  19
TORSDOF 4
ENDMDL
MODEL 8
REMARK VINA RESULT:    -7.483      5.585      8.836
REMARK INTER + INTRA:         -10.041
REMARK INTER:                  -9.234
REMARK INTRA:                  -0.807
REMARK UNBOUND:                -0.809
REMARK SMILES COC(=O)Nc1nc2ccc(C(=O)c3ccccc3)cc2[nH]1
REMARK SMILES IDX 22 1 7 2 21 3 8 4 11 5 20 6 9 7 10 8 6 9 12 11 13 12 14 13
REMARK SMILES IDX 15 14 19 15 16 16 18 17 17 18 5 19 3 20 4 21 2 23 1 24
REMARK H PARENT 22 10 5 22
ROOT
ATOM      1  N   UNL     1      18.873  69.153  16.152  1.00  0.00    -0.324 N 
ATOM      2  N   UNL     1      17.951  68.927  18.144  1.00  0.00    -0.213 NA
ATOM      3  C   UNL     1      17.522  69.105  15.921  1.00  0.00    +0.068 A 
ATOM      4  C   UNL     1      16.971  68.954  17.187  1.00  0.00    +0.091 A 
ATOM      5  C   UNL     1      15.364  69.084  14.905  1.00  0.00    +0.025 A 
ATOM      6  C   UNL     1      16.759  69.168  14.754  1.00  0.00    +0.040 A 
ATOM      7  C   UNL     1      15.579  68.849  17.322  1.00  0.00    +0.031 A 
ATOM      8  C   UNL     1      14.782  68.907  16.170  1.00  0.00    +0.014 A 
ATOM      9  C   UNL     1      19.089  69.047  17.503  1.00  0.00    +0.210 A 
ATOM     10  H   UNL     1      19.586  69.251  15.446  1.00  0.00    +0.170 HD
ENDROOT
BRANCH   5  11
ATOM     11  C   UNL     1      14.534  69.140  13.672  1.00  0.00    +0.193 C 
ATOM     12  O   UNL     1      15.093  69.180  12.578  1.00  0.00    -0.289 OA
BRANCH  11  13
ATOM     13  C   UNL     1      13.051  69.154  13.729  1.00  0.00    +0.022 A 
ATOM     14  C   UNL     1      12.292  68.008  13.462  1.00  0.00    +0.012 A 
ATOM     15  C   UNL     1      12.411  70.341  14.105  1.00  0.00    +0.012 A 
ATOM     16  C   UNL     1      10.899  68.063  13.539  1.00  0.00    +0.001 A 
ATOM     17  C   UNL     1      11.018  70.391  14.181  1.00  0.00    +0.001 A 
ATOM     18  C   UNL     1      10.264  69.253  13.894  1.00  0.00    +0.000 A 
ENDBRANCH  11  13
ENDBRANCH   5  11
BRANCH   9  19
ATOM     19  N   UNL     1      20.360  69.072  18.008  1.00  0.00    -0.261 N 
ATOM     20  C   UNL     1      21.453  68.670  17.295  1.00  0.00    +0.413 C 
ATOM     21  O   UNL     1      21.514  68.238  16.155  1.00  0.00    -0.224 OA
ATOM     22  H   UNL     1      20.546  69.394  18.942  1.00  0.00    +0.176 HD
BRANCH  20  23
ATOM     23  O   UNL     1      22.545  68.833  18.096  1.00  0.00    -0.453 OA
ATOM     24  C   UNL     1      22.321  69.696  19.213  1.00  0.00    +0.284 C 
ENDBRANCH  20  23
ENDBRANCH   9  19
TORSDOF 4
ENDMDL
MODEL 9
REMARK VINA RESULT:    -7.453      2.467      3.425
REMARK INTER + INTRA:         -10.004
REMARK INTER:                  -9.104
REMARK INTRA:                  -0.900
REMARK UNBOUND:                -0.809
REMARK SMILES COC(=O)Nc1nc2ccc(C(=O)c3ccccc3)cc2[nH]1
REMARK SMILES IDX 22 1 7 2 21 3 8 4 11 5 20 6 9 7 10 8 6 9 12 11 13 12 14 13
REMARK SMILES IDX 15 14 19 15 16 16 18 17 17 18 5 19 3 20 4 21 2 23 1 24
REMARK H PARENT 22 10 5 22
ROOT
ATOM      1  N   UNL     1      10.551  70.304  17.006  1.00  0.00    -0.324 N 
ATOM      2  N   UNL     1      10.924  72.409  17.553  1.00  0.00    -0.213 NA
ATOM      3  C   UNL     1      11.871  70.525  16.711  1.00  0.00    +0.068 A 
ATOM      4  C   UNL     1      12.075  71.855  17.056  1.00  0.00    +0.091 A 
ATOM      5  C   UNL     1      14.141  70.289  16.014  1.00  0.00    +0.025 A 
ATOM      6  C   UNL     1      12.872  69.708  16.182  1.00  0.00    +0.040 A 
ATOM      7  C   UNL     1      13.339  72.429  16.863  1.00  0.00    +0.031 A 
ATOM      8  C   UNL     1      14.367  71.637  16.331  1.00  0.00    +0.014 A 
ATOM      9  C   UNL     1      10.017  71.463  17.514  1.00  0.00    +0.210 A 
ATOM     10  H   UNL     1      10.056  69.436  16.871  1.00  0.00    +0.170 HD
ENDROOT
BRANCH   5  11
ATOM     11  C   UNL     1      15.217  69.437  15.442  1.00  0.00    +0.193 C 
ATOM     12  O   UNL     1      15.008  68.838  14.388  1.00  0.00    -0.289 OA
BRANCH  11  13
ATOM     13  C   UNL     1      16.532  69.285  16.112  1.00  0.00    +0.022 A 
ATOM     14  C   UNL     1      16.635  68.908  17.456  1.00  0.00    +0.012 A 
ATOM     15  C   UNL     1      17.693  69.485  15.354  1.00  0.00    +0.012 A 
ATOM     16  C   UNL     1      17.893  68.766  18.045  1.00  0.00    +0.001 A 
ATOM     17  C   UNL     1      18.948  69.341  15.947  1.00  0.00    +0.001 A 
ATOM     18  C   UNL     1      19.047  68.986  17.292  1.00  0.00    +0.000 A 
ENDBRANCH  11  13
ENDBRANCH   5  11
BRANCH   9  19
ATOM     19  N   UNL     1       8.705  71.515  17.896  1.00  0.00    -0.261 N 
ATOM     20  C   UNL     1       8.056  70.464  18.476  1.00  0.00    +0.413 C 
ATOM     21  O   UNL     1       8.477  69.351  18.747  1.00  0.00    -0.224 OA
ATOM     22  H   UNL     1       8.155  72.346  17.764  1.00  0.00    +0.176 HD
BRANCH  20  23
ATOM     23  O   UNL     1       6.775  70.864  18.728  1.00  0.00    -0.453 OA
ATOM     24  C   UNL     1       6.684  72.056  19.511  1.00  0.00    +0.284 C 
ENDBRANCH  20  23
ENDBRANCH   9  19
TORSDOF 4
ENDMDL
