MODEL 1
REMARK VINA RESULT:    -7.076      0.000      0.000
REMARK INTER + INTRA:          -9.431
REMARK INTER:                  -8.730
REMARK INTRA:                  -0.701
REMARK UNBOUND:                -0.701
REMARK SMILES COC(=O)Nc1nc2ccc(C(=O)c3ccccc3)cc2[nH]1
REMARK SMILES IDX 22 1 7 2 21 3 8 4 11 5 20 6 9 7 10 8 6 9 12 11 13 12 14 13
REMARK SMILES IDX 15 14 19 15 16 16 18 17 17 18 5 19 3 20 4 21 2 23 1 24
REMARK H PARENT 22 10 5 22
ROOT
ATOM      1  N   UNL     1      15.456  52.471   5.453  1.00  0.00    -0.324 N 
ATOM      2  N   UNL     1      17.591  52.828   5.027  1.00  0.00    -0.213 NA
ATOM      3  C   UNL     1      15.513  53.737   4.930  1.00  0.00    +0.068 A 
ATOM      4  C   UNL     1      16.865  53.936   4.681  1.00  0.00    +0.091 A 
ATOM      5  C   UNL     1      14.973  55.914   4.116  1.00  0.00    +0.025 A 
ATOM      6  C   UNL     1      14.535  54.698   4.669  1.00  0.00    +0.040 A 
ATOM      7  C   UNL     1      17.292  55.162   4.149  1.00  0.00    +0.031 A 
ATOM      8  C   UNL     1      16.336  56.150   3.878  1.00  0.00    +0.014 A 
ATOM      9  C   UNL     1      16.728  51.957   5.491  1.00  0.00    +0.210 A 
ATOM     10  H   UNL     1      14.619  51.999   5.758  1.00  0.00    +0.170 HD
ENDROOT
BRANCH   5  11
ATOM     11  C   UNL     1      13.947  56.954   3.841  1.00  0.00    +0.193 C 
ATOM     12  O   UNL     1      13.380  57.498   4.787  1.00  0.00    -0.289 OA
BRANCH  11  13
ATOM     13  C   UNL     1      13.585  57.347   2.456  1.00  0.00    +0.022 A 
ATOM     14  C   UNL     1      13.335  58.680   2.110  1.00  0.00    +0.012 A 
ATOM     15  C   UNL     1      13.540  56.352   1.472  1.00  0.00    +0.012 A 
ATOM     16  C   UNL     1      13.009  59.007   0.793  1.00  0.00    +0.001 A 
ATOM     17  C   UNL     1      13.214  56.684   0.156  1.00  0.00    +0.001 A 
ATOM     18  C   UNL     1      12.944  58.010  -0.181  1.00  0.00    +0.000 A 
ENDBRANCH  11  13
ENDBRANCH   5  11
BRANCH   9  19
ATOM     19  N   UNL     1      16.954  50.695   5.970  1.00  0.00    -0.261 N 
ATOM     20  C   UNL     1      17.137  49.612   5.159  1.00  0.00    +0.413 C 
ATOM     21  O   UNL     1      17.132  49.552   3.940  1.00  0.00    -0.224 OA
ATOM     22  H   UNL     1      16.997  50.510   6.957  1.00  0.00    +0.176 HD
BRANCH  20  23
ATOM     23  O   UNL     1      17.340  48.529   5.964  1.00  0.00    -0.453 OA
ATOM     24  C   UNL     1      16.350  47.508   5.822  1.00  0.00    +0.284 C 
ENDBRANCH  20  23
ENDBRANCH   9  19
TORSDOF 4
ENDMDL
MODEL 2
REMARK VINA RESULT:    -6.692      2.655      4.228
REMARK INTER + INTRA:          -8.958
REMARK INTER:                  -8.404
REMARK INTRA:                  -0.553
REMARK UNBOUND:                -0.701
REMARK SMILES COC(=O)Nc1nc2ccc(C(=O)c3ccccc3)cc2[nH]1
REMARK SMILES IDX 22 1 7 2 21 3 8 4 11 5 20 6 9 7 10 8 6 9 12 11 13 12 14 13
REMARK SMILES IDX 15 14 19 15 16 16 18 17 17 18 5 19 3 20 4 21 2 23 1 24
REMARK H PARENT 22 10 5 22
ROOT
ATOM      1  N   UNL     1      16.912  49.517   5.339  1.00  0.00    -0.324 N 
ATOM      2  N   UNL     1      18.353  49.146   6.968  1.00  0.00    -0.213 NA
ATOM      3  C   UNL     1      17.361  50.758   5.714  1.00  0.00    +0.068 A 
ATOM      4  C   UNL     1      18.256  50.494   6.742  1.00  0.00    +0.091 A 
ATOM      5  C   UNL     1      17.737  53.106   5.899  1.00  0.00    +0.025 A 
ATOM      6  C   UNL     1      17.067  52.046   5.264  1.00  0.00    +0.040 A 
ATOM      7  C   UNL     1      18.902  51.561   7.382  1.00  0.00    +0.031 A 
ATOM      8  C   UNL     1      18.627  52.869   6.957  1.00  0.00    +0.014 A 
ATOM      9  C   UNL     1      17.537  48.574   6.117  1.00  0.00    +0.210 A 
ATOM     10  H   UNL     1      16.236  49.332   4.614  1.00  0.00    +0.170 HD
ENDROOT
BRANCH   5  11
ATOM     11  C   UNL     1      17.428  54.487   5.441  1.00  0.00    +0.193 C 
ATOM     12  O   UNL     1      18.267  55.371   5.603  1.00  0.00    -0.289 OA
BRANCH  11  13
ATOM     13  C   UNL     1      16.133  54.826   4.802  1.00  0.00    +0.022 A 
ATOM     14  C   UNL     1      14.918  54.330   5.289  1.00  0.00    +0.012 A 
ATOM     15  C   UNL     1      16.139  55.703   3.710  1.00  0.00    +0.012 A 
ATOM     16  C   UNL     1      13.721  54.684   4.664  1.00  0.00    +0.001 A 
ATOM     17  C   UNL     1      14.939  56.054   3.089  1.00  0.00    +0.001 A 
ATOM     18  C   UNL     1      13.732  55.541   3.563  1.00  0.00    +0.000 A 
ENDBRANCH  11  13
ENDBRANCH   5  11
BRANCH   9  19
ATOM     19  N   UNL     1      17.269  47.244   5.944  1.00  0.00    -0.261 N 
ATOM     20  C   UNL     1      16.035  46.698   6.156  1.00  0.00    +0.413 C 
ATOM     21  O   UNL     1      15.004  47.241   6.517  1.00  0.00    -0.224 OA
ATOM     22  H   UNL     1      17.984  46.601   5.648  1.00  0.00    +0.176 HD
BRANCH  20  23
ATOM     23  O   UNL     1      16.128  45.363   5.887  1.00  0.00    -0.453 OA
ATOM     24  C   UNL     1      17.047  45.046   4.839  1.00  0.00    +0.284 C 
ENDBRANCH  20  23
ENDBRANCH   9  19
TORSDOF 4
ENDMDL
MODEL 3
REMARK VINA RESULT:    -6.475      1.730      2.837
REMARK INTER + INTRA:          -8.689
REMARK INTER:                  -8.047
REMARK INTRA:                  -0.642
REMARK UNBOUND:                -0.701
REMARK SMILES COC(=O)Nc1nc2ccc(C(=O)c3ccccc3)cc2[nH]1
REMARK SMILES IDX 22 1 7 2 21 3 8 4 11 5 20 6 9 7 10 8 6 9 12 11 13 12 14 13
REMARK SMILES IDX 15 14 19 15 16 16 18 17 17 18 5 19 3 20 4 21 2 23 1 24
REMARK H PARENT 22 10 5 22
ROOT
ATOM      1  N   UNL     1      15.441  52.524   5.474  1.00  0.00    -0.324 N 
ATOM      2  N   UNL     1      17.574  52.810   4.988  1.00  0.00    -0.213 NA
ATOM      3  C   UNL     1      15.523  53.782   4.937  1.00  0.00    +0.068 A 
ATOM      4  C   UNL     1      16.873  53.937   4.650  1.00  0.00    +0.091 A 
ATOM      5  C   UNL     1      15.028  55.966   4.114  1.00  0.00    +0.025 A 
ATOM      6  C   UNL     1      14.567  54.771   4.692  1.00  0.00    +0.040 A 
ATOM      7  C   UNL     1      17.323  55.143   4.094  1.00  0.00    +0.031 A 
ATOM      8  C   UNL     1      16.390  56.159   3.837  1.00  0.00    +0.014 A 
ATOM      9  C   UNL     1      16.697  51.971   5.485  1.00  0.00    +0.210 A 
ATOM     10  H   UNL     1      14.598  52.081   5.807  1.00  0.00    +0.170 HD
ENDROOT
BRANCH   5  11
ATOM     11  C   UNL     1      14.027  57.035   3.855  1.00  0.00    +0.193 C 
ATOM     12  O   UNL     1      13.419  57.037   2.787  1.00  0.00    -0.289 OA
BRANCH  11  13
ATOM     13  C   UNL     1      13.749  58.101   4.849  1.00  0.00    +0.022 A 
ATOM     14  C   UNL     1      14.206  58.015   6.169  1.00  0.00    +0.012 A 
ATOM     15  C   UNL     1      13.047  59.238   4.428  1.00  0.00    +0.012 A 
ATOM     16  C   UNL     1      13.932  59.047   7.069  1.00  0.00    +0.001 A 
ATOM     17  C   UNL     1      12.776  60.267   5.332  1.00  0.00    +0.001 A 
ATOM     18  C   UNL     1      13.215  60.168   6.652  1.00  0.00    +0.000 A 
ENDBRANCH  11  13
ENDBRANCH   5  11
BRANCH   9  19
ATOM     19  N   UNL     1      16.897  50.708   5.970  1.00  0.00    -0.261 N 
ATOM     20  C   UNL     1      17.090  49.622   5.166  1.00  0.00    +0.413 C 
ATOM     21  O   UNL     1      17.117  49.560   3.947  1.00  0.00    -0.224 OA
ATOM     22  H   UNL     1      16.912  50.524   6.959  1.00  0.00    +0.176 HD
BRANCH  20  23
ATOM     23  O   UNL     1      17.260  48.538   5.977  1.00  0.00    -0.453 OA
ATOM     24  C   UNL     1      16.362  47.461   5.701  1.00  0.00    +0.284 C 
ENDBRANCH  20  23
ENDBRANCH   9  19
TORSDOF 4
ENDMDL
MODEL 4
REMARK VINA RESULT:    -6.373      4.957      9.388
REMARK INTER + INTRA:          -8.564
REMARK INTER:                  -7.676
REMARK INTRA:                  -0.887
REMARK UNBOUND:                -0.701
REMARK SMILES COC(=O)Nc1nc2ccc(C(=O)c3ccccc3)cc2[nH]1
REMARK SMILES IDX 22 1 7 2 21 3 8 4 11 5 20 6 9 7 10 8 6 9 12 11 13 12 14 13
REMARK SMILES IDX 15 14 19 15 16 16 18 17 17 18 5 19 3 20 4 21 2 23 1 24
REMARK H PARENT 22 10 5 22
ROOT
ATOM      1  N   UNL     1      12.792  60.292   0.881  1.00  0.00    -0.324 N 
ATOM      2  N   UNL     1      12.639  58.846  -0.779  1.00  0.00    -0.213 NA
ATOM      3  C   UNL     1      13.109  59.076   1.430  1.00  0.00    +0.068 A 
ATOM      4  C   UNL     1      12.996  58.188   0.369  1.00  0.00    +0.091 A 
ATOM      5  C   UNL     1      13.726  57.320   2.922  1.00  0.00    +0.025 A 
ATOM      6  C   UNL     1      13.464  58.686   2.723  1.00  0.00    +0.040 A 
ATOM      7  C   UNL     1      13.238  56.824   0.585  1.00  0.00    +0.031 A 
ATOM      8  C   UNL     1      13.595  56.398   1.873  1.00  0.00    +0.014 A 
ATOM      9  C   UNL     1      12.519  60.110  -0.453  1.00  0.00    +0.210 A 
ATOM     10  H   UNL     1      12.764  61.170   1.374  1.00  0.00    +0.170 HD
ENDROOT
BRANCH   5  11
ATOM     11  C   UNL     1      14.096  56.883   4.295  1.00  0.00    +0.193 C 
ATOM     12  O   UNL     1      13.747  57.570   5.253  1.00  0.00    -0.289 OA
BRANCH  11  13
ATOM     13  C   UNL     1      14.879  55.646   4.536  1.00  0.00    +0.022 A 
ATOM     14  C   UNL     1      16.260  55.593   4.314  1.00  0.00    +0.012 A 
ATOM     15  C   UNL     1      14.211  54.524   5.042  1.00  0.00    +0.012 A 
ATOM     16  C   UNL     1      16.960  54.412   4.566  1.00  0.00    +0.001 A 
ATOM     17  C   UNL     1      14.916  53.345   5.293  1.00  0.00    +0.001 A 
ATOM     18  C   UNL     1      16.288  53.289   5.050  1.00  0.00    +0.000 A 
ENDBRANCH  11  13
ENDBRANCH   5  11
BRANCH   9  19
ATOM     19  N   UNL     1      12.176  61.172  -1.243  1.00  0.00    -0.261 N 
ATOM     20  C   UNL     1      12.767  62.398  -1.141  1.00  0.00    +0.413 C 
ATOM     21  O   UNL     1      13.648  62.769  -0.383  1.00  0.00    -0.224 OA
ATOM     22  H   UNL     1      11.461  61.091  -1.946  1.00  0.00    +0.176 HD
BRANCH  20  23
ATOM     23  O   UNL     1      12.190  63.208  -2.076  1.00  0.00    -0.453 OA
ATOM     24  C   UNL     1      13.043  63.518  -3.180  1.00  0.00    +0.284 C 
ENDBRANCH  20  23
ENDBRANCH   9  19
TORSDOF 4
ENDMDL
MODEL 5
REMARK VINA RESULT:    -6.332      7.011      8.028
REMARK INTER + INTRA:          -8.513
REMARK INTER:                  -7.666
REMARK INTRA:                  -0.847
REMARK UNBOUND:                -0.701
REMARK SMILES COC(=O)Nc1nc2ccc(C(=O)c3ccccc3)cc2[nH]1
REMARK SMILES IDX 22 1 7 2 21 3 8 4 11 5 20 6 9 7 10 8 6 9 12 11 13 12 14 13
REMARK SMILES IDX 15 14 19 15 16 16 18 17 17 18 5 19 3 20 4 21 2 23 1 24
REMARK H PARENT 22 10 5 22
ROOT
ATOM      1  N   UNL     1      10.801  49.425  -1.244  1.00  0.00    -0.324 N 
ATOM      2  N   UNL     1      12.593  48.242  -1.753  1.00  0.00    -0.213 NA
ATOM      3  C   UNL     1      11.683  50.322  -1.791  1.00  0.00    +0.068 A 
ATOM      4  C   UNL     1      12.799  49.554  -2.093  1.00  0.00    +0.091 A 
ATOM      5  C   UNL     1      12.732  52.296  -2.625  1.00  0.00    +0.025 A 
ATOM      6  C   UNL     1      11.607  51.695  -2.034  1.00  0.00    +0.040 A 
ATOM      7  C   UNL     1      13.924  50.169  -2.661  1.00  0.00    +0.031 A 
ATOM      8  C   UNL     1      13.883  51.547  -2.916  1.00  0.00    +0.014 A 
ATOM      9  C   UNL     1      11.387  48.184  -1.242  1.00  0.00    +0.210 A 
ATOM     10  H   UNL     1       9.879  49.644  -0.900  1.00  0.00    +0.170 HD
ENDROOT
BRANCH   5  11
ATOM     11  C   UNL     1      12.675  53.759  -2.881  1.00  0.00    +0.193 C 
ATOM     12  O   UNL     1      12.282  54.158  -3.976  1.00  0.00    -0.289 OA
BRANCH  11  13
ATOM     13  C   UNL     1      13.085  54.749  -1.854  1.00  0.00    +0.022 A 
ATOM     14  C   UNL     1      12.150  55.538  -1.176  1.00  0.00    +0.012 A 
ATOM     15  C   UNL     1      14.445  54.851  -1.534  1.00  0.00    +0.012 A 
ATOM     16  C   UNL     1      12.578  56.448  -0.208  1.00  0.00    +0.001 A 
ATOM     17  C   UNL     1      14.869  55.762  -0.565  1.00  0.00    +0.001 A 
ATOM     18  C   UNL     1      13.936  56.563   0.093  1.00  0.00    +0.000 A 
ENDBRANCH  11  13
ENDBRANCH   5  11
BRANCH   9  19
ATOM     19  N   UNL     1      10.715  47.099  -0.749  1.00  0.00    -0.261 N 
ATOM     20  C   UNL     1       9.353  47.009  -0.737  1.00  0.00    +0.413 C 
ATOM     21  O   UNL     1       8.523  47.814  -1.127  1.00  0.00    -0.224 OA
ATOM     22  H   UNL     1      11.206  46.308  -0.370  1.00  0.00    +0.176 HD
BRANCH  20  23
ATOM     23  O   UNL     1       9.029  45.803  -0.186  1.00  0.00    -0.453 OA
ATOM     24  C   UNL     1       9.918  44.744  -0.546  1.00  0.00    +0.284 C 
ENDBRANCH  20  23
ENDBRANCH   9  19
TORSDOF 4
ENDMDL
MODEL 6
REMARK VINA RESULT:    -6.234     13.543     15.444
REMARK INTER + INTRA:          -8.393
REMARK INTER:                  -7.496
REMARK INTRA:                  -0.897
REMARK UNBOUND:                -0.701
REMARK SMILES COC(=O)Nc1nc2ccc(C(=O)c3ccccc3)cc2[nH]1
REMARK SMILES IDX 22 1 7 2 21 3 8 4 11 5 20 6 9 7 10 8 6 9 12 11 13 12 14 13
REMARK SMILES IDX 15 14 19 15 16 16 18 17 17 18 5 19 3 20 4 21 2 23 1 24
REMARK H PARENT 22 10 5 22
ROOT
ATOM      1  N   UNL     1       6.928  42.352  -3.880  1.00  0.00    -0.324 N 
ATOM      2  N   UNL     1       8.356  41.382  -5.254  1.00  0.00    -0.213 NA
ATOM      3  C   UNL     1       8.169  42.728  -3.435  1.00  0.00    +0.068 A 
ATOM      4  C   UNL     1       9.044  42.098  -4.310  1.00  0.00    +0.091 A 
ATOM      5  C   UNL     1       9.978  43.698  -2.218  1.00  0.00    +0.025 A 
ATOM      6  C   UNL     1       8.591  43.531  -2.374  1.00  0.00    +0.040 A 
ATOM      7  C   UNL     1      10.426  42.254  -4.131  1.00  0.00    +0.031 A 
ATOM      8  C   UNL     1      10.884  43.052  -3.073  1.00  0.00    +0.014 A 
ATOM      9  C   UNL     1       7.084  41.545  -4.980  1.00  0.00    +0.210 A 
ATOM     10  H   UNL     1       6.049  42.624  -3.468  1.00  0.00    +0.170 HD
ENDROOT
BRANCH   5  11
ATOM     11  C   UNL     1      10.446  44.540  -1.086  1.00  0.00    +0.193 C 
ATOM     12  O   UNL     1      10.971  43.998  -0.116  1.00  0.00    -0.289 OA
BRANCH  11  13
ATOM     13  C   UNL     1      10.291  46.016  -1.096  1.00  0.00    +0.022 A 
ATOM     14  C   UNL     1       9.583  46.689  -0.093  1.00  0.00    +0.012 A 
ATOM     15  C   UNL     1      10.914  46.745  -2.117  1.00  0.00    +0.012 A 
ATOM     16  C   UNL     1       9.472  48.080  -0.134  1.00  0.00    +0.001 A 
ATOM     17  C   UNL     1      10.800  48.135  -2.153  1.00  0.00    +0.001 A 
ATOM     18  C   UNL     1      10.076  48.801  -1.164  1.00  0.00    +0.000 A 
ENDBRANCH  11  13
ENDBRANCH   5  11
BRANCH   9  19
ATOM     19  N   UNL     1       5.994  41.031  -5.626  1.00  0.00    -0.261 N 
ATOM     20  C   UNL     1       4.821  40.740  -4.991  1.00  0.00    +0.413 C 
ATOM     21  O   UNL     1       4.530  40.863  -3.812  1.00  0.00    -0.224 OA
ATOM     22  H   UNL     1       6.011  40.845  -6.614  1.00  0.00    +0.176 HD
BRANCH  20  23
ATOM     23  O   UNL     1       3.958  40.255  -5.931  1.00  0.00    -0.453 OA
ATOM     24  C   UNL     1       4.208  40.740  -7.252  1.00  0.00    +0.284 C 
ENDBRANCH  20  23
ENDBRANCH   9  19
TORSDOF 4
ENDMDL
MODEL 7
REMARK VINA RESULT:    -6.203      4.259      7.563
REMARK INTER + INTRA:          -8.354
REMARK INTER:                  -7.606
REMARK INTRA:                  -0.748
REMARK UNBOUND:                -0.701
REMARK SMILES COC(=O)Nc1nc2ccc(C(=O)c3ccccc3)cc2[nH]1
REMARK SMILES IDX 22 1 7 2 21 3 8 4 11 5 20 6 9 7 10 8 6 9 12 11 13 12 14 13
REMARK SMILES IDX 15 14 19 15 16 16 18 17 17 18 5 19 3 20 4 21 2 23 1 24
REMARK H PARENT 22 10 5 22
ROOT
ATOM      1  N   UNL     1      13.167  56.143   0.092  1.00  0.00    -0.324 N 
ATOM      2  N   UNL     1      12.553  58.245  -0.179  1.00  0.00    -0.213 NA
ATOM      3  C   UNL     1      13.355  56.735   1.315  1.00  0.00    +0.068 A 
ATOM      4  C   UNL     1      12.970  58.053   1.112  1.00  0.00    +0.091 A 
ATOM      5  C   UNL     1      13.880  57.168   3.601  1.00  0.00    +0.025 A 
ATOM      6  C   UNL     1      13.821  56.250   2.538  1.00  0.00    +0.040 A 
ATOM      7  C   UNL     1      13.054  58.965   2.175  1.00  0.00    +0.031 A 
ATOM      8  C   UNL     1      13.521  58.512   3.417  1.00  0.00    +0.014 A 
ATOM      9  C   UNL     1      12.680  57.086  -0.779  1.00  0.00    +0.210 A 
ATOM     10  H   UNL     1      13.357  55.178  -0.129  1.00  0.00    +0.170 HD
ENDROOT
BRANCH   5  11
ATOM     11  C   UNL     1      14.384  56.674   4.910  1.00  0.00    +0.193 C 
ATOM     12  O   UNL     1      14.178  57.343   5.920  1.00  0.00    -0.289 OA
BRANCH  11  13
ATOM     13  C   UNL     1      15.134  55.398   5.026  1.00  0.00    +0.022 A 
ATOM     14  C   UNL     1      14.483  54.177   5.233  1.00  0.00    +0.012 A 
ATOM     15  C   UNL     1      16.526  55.429   4.879  1.00  0.00    +0.012 A 
ATOM     16  C   UNL     1      15.226  52.999   5.324  1.00  0.00    +0.001 A 
ATOM     17  C   UNL     1      17.265  54.249   4.971  1.00  0.00    +0.001 A 
ATOM     18  C   UNL     1      16.616  53.036   5.198  1.00  0.00    +0.000 A 
ENDBRANCH  11  13
ENDBRANCH   5  11
BRANCH   9  19
ATOM     19  N   UNL     1      12.399  56.755  -2.076  1.00  0.00    -0.261 N 
ATOM     20  C   UNL     1      12.049  55.494  -2.464  1.00  0.00    +0.413 C 
ATOM     21  O   UNL     1      11.930  54.484  -1.789  1.00  0.00    -0.224 OA
ATOM     22  H   UNL     1      12.438  57.441  -2.811  1.00  0.00    +0.176 HD
BRANCH  20  23
ATOM     23  O   UNL     1      11.838  55.526  -3.812  1.00  0.00    -0.453 OA
ATOM     24  C   UNL     1      11.605  54.241  -4.393  1.00  0.00    +0.284 C 
ENDBRANCH  20  23
ENDBRANCH   9  19
TORSDOF 4
ENDMDL
MODEL 8
REMARK VINA RESULT:    -6.137      2.374      2.956
REMARK INTER + INTRA:          -8.273
REMARK INTER:                  -7.398
REMARK INTRA:                  -0.875
REMARK UNBOUND:                -0.701
REMARK SMILES COC(=O)Nc1nc2ccc(C(=O)c3ccccc3)cc2[nH]1
REMARK SMILES IDX 22 1 7 2 21 3 8 4 11 5 20 6 9 7 10 8 6 9 12 11 13 12 14 13
REMARK SMILES IDX 15 14 19 15 16 16 18 17 17 18 5 19 3 20 4 21 2 23 1 24
REMARK H PARENT 22 10 5 22
ROOT
ATOM      1  N   UNL     1      17.843  54.579   4.197  1.00  0.00    -0.324 N 
ATOM      2  N   UNL     1      16.912  52.910   5.301  1.00  0.00    -0.213 NA
ATOM      3  C   UNL     1      16.506  54.878   4.244  1.00  0.00    +0.068 A 
ATOM      4  C   UNL     1      15.947  53.811   4.934  1.00  0.00    +0.091 A 
ATOM      5  C   UNL     1      14.374  55.921   3.995  1.00  0.00    +0.025 A 
ATOM      6  C   UNL     1      15.758  55.950   3.752  1.00  0.00    +0.040 A 
ATOM      7  C   UNL     1      14.562  53.782   5.150  1.00  0.00    +0.031 A 
ATOM      8  C   UNL     1      13.781  54.842   4.667  1.00  0.00    +0.014 A 
ATOM      9  C   UNL     1      18.047  53.387   4.848  1.00  0.00    +0.210 A 
ATOM     10  H   UNL     1      18.556  55.141   3.758  1.00  0.00    +0.170 HD
ENDROOT
BRANCH   5  11
ATOM     11  C   UNL     1      13.560  57.049   3.470  1.00  0.00    +0.193 C 
ATOM     12  O   UNL     1      12.974  57.783   4.264  1.00  0.00    -0.289 OA
BRANCH  11  13
ATOM     13  C   UNL     1      13.430  57.306   2.014  1.00  0.00    +0.022 A 
ATOM     14  C   UNL     1      13.468  56.268   1.076  1.00  0.00    +0.012 A 
ATOM     15  C   UNL     1      13.220  58.623   1.587  1.00  0.00    +0.012 A 
ATOM     16  C   UNL     1      13.330  56.553  -0.284  1.00  0.00    +0.001 A 
ATOM     17  C   UNL     1      13.082  58.903   0.226  1.00  0.00    +0.001 A 
ATOM     18  C   UNL     1      13.142  57.869  -0.708  1.00  0.00    +0.000 A 
ENDBRANCH  11  13
ENDBRANCH   5  11
BRANCH   9  19
ATOM     19  N   UNL     1      19.303  52.858   4.952  1.00  0.00    -0.261 N 
ATOM     20  C   UNL     1      20.160  52.760   3.893  1.00  0.00    +0.413 C 
ATOM     21  O   UNL     1      19.992  53.093   2.731  1.00  0.00    -0.224 OA
ATOM     22  H   UNL     1      19.655  52.513   5.829  1.00  0.00    +0.176 HD
BRANCH  20  23
ATOM     23  O   UNL     1      21.314  52.194   4.353  1.00  0.00    -0.453 OA
ATOM     24  C   UNL     1      21.115  51.247   5.405  1.00  0.00    +0.284 C 
ENDBRANCH  20  23
ENDBRANCH   9  19
TORSDOF 4
ENDMDL
MODEL 9
REMARK VINA RESULT:    -6.041     11.696     15.903
REMARK INTER + INTRA:          -8.155
REMARK INTER:                  -7.405
REMARK INTRA:                  -0.750
REMARK UNBOUND:                -0.701
REMARK SMILES COC(=O)Nc1nc2ccc(C(=O)c3ccccc3)cc2[nH]1
REMARK SMILES IDX 22 1 7 2 21 3 8 4 11 5 20 6 9 7 10 8 6 9 12 11 13 12 14 13
REMARK SMILES IDX 15 14 19 15 16 16 18 17 17 18 5 19 3 20 4 21 2 23 1 24
REMARK H PARENT 22 10 5 22
ROOT
ATOM      1  N   UNL     1       5.934  63.165  -5.003  1.00  0.00    -0.324 N 
ATOM      2  N   UNL     1       7.267  64.657  -5.934  1.00  0.00    -0.213 NA
ATOM      3  C   UNL     1       7.012  62.451  -5.461  1.00  0.00    +0.068 A 
ATOM      4  C   UNL     1       7.826  63.411  -6.046  1.00  0.00    +0.091 A 
ATOM      5  C   UNL     1       8.553  60.713  -6.005  1.00  0.00    +0.025 A 
ATOM      6  C   UNL     1       7.332  61.092  -5.422  1.00  0.00    +0.040 A 
ATOM      7  C   UNL     1       9.032  63.017  -6.645  1.00  0.00    +0.031 A 
ATOM      8  C   UNL     1       9.383  61.659  -6.626  1.00  0.00    +0.014 A 
ATOM      9  C   UNL     1       6.129  64.490  -5.305  1.00  0.00    +0.210 A 
ATOM     10  H   UNL     1       5.134  62.780  -4.526  1.00  0.00    +0.170 HD
ENDROOT
BRANCH   5  11
ATOM     11  C   UNL     1       8.907  59.269  -5.984  1.00  0.00    +0.193 C 
ATOM     12  O   UNL     1       8.587  58.562  -6.938  1.00  0.00    -0.289 OA
BRANCH  11  13
ATOM     13  C   UNL     1       9.627  58.658  -4.839  1.00  0.00    +0.022 A 
ATOM     14  C   UNL     1      10.721  59.290  -4.236  1.00  0.00    +0.012 A 
ATOM     15  C   UNL     1       9.160  57.440  -4.332  1.00  0.00    +0.012 A 
ATOM     16  C   UNL     1      11.363  58.685  -3.153  1.00  0.00    +0.001 A 
ATOM     17  C   UNL     1       9.804  56.840  -3.249  1.00  0.00    +0.001 A 
ATOM     18  C   UNL     1      10.908  57.461  -2.664  1.00  0.00    +0.000 A 
ENDBRANCH  11  13
ENDBRANCH   5  11
BRANCH   9  19
ATOM     19  N   UNL     1       5.197  65.427  -4.953  1.00  0.00    -0.261 N 
ATOM     20  C   UNL     1       4.261  65.219  -3.982  1.00  0.00    +0.413 C 
ATOM     21  O   UNL     1       4.076  64.232  -3.288  1.00  0.00    -0.224 OA
ATOM     22  H   UNL     1       5.164  66.326  -5.403  1.00  0.00    +0.176 HD
BRANCH  20  23
ATOM     23  O   UNL     1       3.507  66.353  -3.891  1.00  0.00    -0.453 OA
ATOM     24  C   UNL     1       2.192  66.135  -3.378  1.00  0.00    +0.284 C 
ENDBRANCH  20  23
ENDBRANCH   9  19
TORSDOF 4
ENDMDL
