MODEL 1
REMARK VINA RESULT:    -7.039      0.000      0.000
REMARK INTER + INTRA:          -9.307
REMARK INTER:                  -8.686
REMARK INTRA:                  -0.621
REMARK UNBOUND:                -0.621
REMARK SMILES COC(=O)Nc1nc2ccc(C(=O)c3ccccc3)cc2[nH]1
REMARK SMILES IDX 22 1 7 2 21 3 8 4 11 5 20 6 9 7 10 8 6 9 12 11 13 12 14 13
REMARK SMILES IDX 15 14 19 15 16 16 18 17 17 18 5 19 3 20 4 21 2 23 1 24
REMARK H PARENT 22 10 5 22
ROOT
ATOM      1  N   UNL     1      -1.900  12.153  -1.207  1.00  0.00    -0.324 N 
ATOM      2  N   UNL     1      -1.845  13.073   0.798  1.00  0.00    -0.213 NA
ATOM      3  C   UNL     1      -0.603  12.563  -1.032  1.00  0.00    +0.068 A 
ATOM      4  C   UNL     1      -0.601  13.143   0.229  1.00  0.00    +0.091 A 
ATOM      5  C   UNL     1       1.720  13.024  -1.322  1.00  0.00    +0.025 A 
ATOM      6  C   UNL     1       0.531  12.487  -1.844  1.00  0.00    +0.040 A 
ATOM      7  C   UNL     1       0.587  13.696   0.729  1.00  0.00    +0.031 A 
ATOM      8  C   UNL     1       1.744  13.639  -0.061  1.00  0.00    +0.014 A 
ATOM      9  C   UNL     1      -2.614  12.477  -0.080  1.00  0.00    +0.210 A 
ATOM     10  H   UNL     1      -2.265  11.693  -2.026  1.00  0.00    +0.170 HD
ENDROOT
BRANCH   5  11
ATOM     11  C   UNL     1       2.936  12.962  -2.177  1.00  0.00    +0.193 C 
ATOM     12  O   UNL     1       3.015  13.701  -3.156  1.00  0.00    -0.289 OA
BRANCH  11  13
ATOM     13  C   UNL     1       4.050  12.027  -1.882  1.00  0.00    +0.022 A 
ATOM     14  C   UNL     1       4.122  10.758  -2.469  1.00  0.00    +0.012 A 
ATOM     15  C   UNL     1       5.072  12.458  -1.027  1.00  0.00    +0.012 A 
ATOM     16  C   UNL     1       5.194   9.915  -2.173  1.00  0.00    +0.001 A 
ATOM     17  C   UNL     1       6.142  11.611  -0.735  1.00  0.00    +0.001 A 
ATOM     18  C   UNL     1       6.200  10.339  -1.304  1.00  0.00    +0.000 A 
ENDBRANCH  11  13
ENDBRANCH   5  11
BRANCH   9  19
ATOM     19  N   UNL     1      -3.945  12.173   0.010  1.00  0.00    -0.261 N 
ATOM     20  C   UNL     1      -4.926  13.123   0.034  1.00  0.00    +0.413 C 
ATOM     21  O   UNL     1      -4.824  14.338  -0.011  1.00  0.00    -0.224 OA
ATOM     22  H   UNL     1      -4.261  11.220   0.062  1.00  0.00    +0.176 HD
BRANCH  20  23
ATOM     23  O   UNL     1      -6.122  12.471   0.123  1.00  0.00    -0.453 OA
ATOM     24  C   UNL     1      -7.205  13.158  -0.507  1.00  0.00    +0.284 C 
ENDBRANCH  20  23
ENDBRANCH   9  19
TORSDOF 4
ENDMDL
MODEL 2
REMARK VINA RESULT:    -7.007      6.358      9.114
REMARK INTER + INTRA:          -9.266
REMARK INTER:                  -8.859
REMARK INTRA:                  -0.407
REMARK UNBOUND:                -0.621
REMARK SMILES COC(=O)Nc1nc2ccc(C(=O)c3ccccc3)cc2[nH]1
REMARK SMILES IDX 22 1 7 2 21 3 8 4 11 5 20 6 9 7 10 8 6 9 12 11 13 12 14 13
REMARK SMILES IDX 15 14 19 15 16 16 18 17 17 18 5 19 3 20 4 21 2 23 1 24
REMARK H PARENT 22 10 5 22
ROOT
ATOM      1  N   UNL     1       6.165  17.933  -0.258  1.00  0.00    -0.324 N 
ATOM      2  N   UNL     1       7.036  17.912   1.769  1.00  0.00    -0.213 NA
ATOM      3  C   UNL     1       5.701  16.781   0.322  1.00  0.00    +0.068 A 
ATOM      4  C   UNL     1       6.270  16.790   1.589  1.00  0.00    +0.091 A 
ATOM      5  C   UNL     1       4.603  14.708   0.757  1.00  0.00    +0.025 A 
ATOM      6  C   UNL     1       4.868  15.759  -0.137  1.00  0.00    +0.040 A 
ATOM      7  C   UNL     1       6.016  15.725   2.464  1.00  0.00    +0.031 A 
ATOM      8  C   UNL     1       5.185  14.681   2.034  1.00  0.00    +0.014 A 
ATOM      9  C   UNL     1       6.963  18.588   0.648  1.00  0.00    +0.210 A 
ATOM     10  H   UNL     1       5.955  18.246  -1.193  1.00  0.00    +0.170 HD
ENDROOT
BRANCH   5  11
ATOM     11  C   UNL     1       3.725  13.605   0.282  1.00  0.00    +0.193 C 
ATOM     12  O   UNL     1       2.531  13.626   0.572  1.00  0.00    -0.289 OA
BRANCH  11  13
ATOM     13  C   UNL     1       4.256  12.479  -0.525  1.00  0.00    +0.022 A 
ATOM     14  C   UNL     1       5.422  11.796  -0.161  1.00  0.00    +0.012 A 
ATOM     15  C   UNL     1       3.535  12.072  -1.654  1.00  0.00    +0.012 A 
ATOM     16  C   UNL     1       5.879  10.733  -0.943  1.00  0.00    +0.001 A 
ATOM     17  C   UNL     1       3.996  11.009  -2.433  1.00  0.00    +0.001 A 
ATOM     18  C   UNL     1       5.169  10.344  -2.079  1.00  0.00    +0.000 A 
ENDBRANCH  11  13
ENDBRANCH   5  11
BRANCH   9  19
ATOM     19  N   UNL     1       7.554  19.777   0.322  1.00  0.00    -0.261 N 
ATOM     20  C   UNL     1       7.916  20.709   1.251  1.00  0.00    +0.413 C 
ATOM     21  O   UNL     1       7.791  20.677   2.465  1.00  0.00    -0.224 OA
ATOM     22  H   UNL     1       7.752  20.018  -0.635  1.00  0.00    +0.176 HD
BRANCH  20  23
ATOM     23  O   UNL     1       8.476  21.758   0.581  1.00  0.00    -0.453 OA
ATOM     24  C   UNL     1       7.884  22.013  -0.694  1.00  0.00    +0.284 C 
ENDBRANCH  20  23
ENDBRANCH   9  19
TORSDOF 4
ENDMDL
MODEL 3
REMARK VINA RESULT:    -6.935      3.812      5.087
REMARK INTER + INTRA:          -9.177
REMARK INTER:                  -8.255
REMARK INTRA:                  -0.922
REMARK UNBOUND:                -0.621
REMARK SMILES COC(=O)Nc1nc2ccc(C(=O)c3ccccc3)cc2[nH]1
REMARK SMILES IDX 22 1 7 2 21 3 8 4 11 5 20 6 9 7 10 8 6 9 12 11 13 12 14 13
REMARK SMILES IDX 15 14 19 15 16 16 18 17 17 18 5 19 3 20 4 21 2 23 1 24
REMARK H PARENT 22 10 5 22
ROOT
ATOM      1  N   UNL     1       0.788  13.260  -0.817  1.00  0.00    -0.324 N 
ATOM      2  N   UNL     1       1.939  11.843  -2.056  1.00  0.00    -0.213 NA
ATOM      3  C   UNL     1       2.100  13.461  -0.472  1.00  0.00    +0.068 A 
ATOM      4  C   UNL     1       2.797  12.553  -1.258  1.00  0.00    +0.091 A 
ATOM      5  C   UNL     1       4.119  14.251   0.525  1.00  0.00    +0.025 A 
ATOM      6  C   UNL     1       2.718  14.323   0.436  1.00  0.00    +0.040 A 
ATOM      7  C   UNL     1       4.192  12.475  -1.144  1.00  0.00    +0.031 A 
ATOM      8  C   UNL     1       4.845  13.325  -0.240  1.00  0.00    +0.014 A 
ATOM      9  C   UNL     1       0.735  12.279  -1.776  1.00  0.00    +0.210 A 
ATOM     10  H   UNL     1      -0.003  13.750  -0.429  1.00  0.00    +0.170 HD
ENDROOT
BRANCH   5  11
ATOM     11  C   UNL     1       4.794  15.154   1.494  1.00  0.00    +0.193 C 
ATOM     12  O   UNL     1       4.582  15.005   2.696  1.00  0.00    -0.289 OA
BRANCH  11  13
ATOM     13  C   UNL     1       5.710  16.233   1.048  1.00  0.00    +0.022 A 
ATOM     14  C   UNL     1       7.064  16.244   1.402  1.00  0.00    +0.012 A 
ATOM     15  C   UNL     1       5.201  17.236   0.214  1.00  0.00    +0.012 A 
ATOM     16  C   UNL     1       7.893  17.272   0.951  1.00  0.00    +0.001 A 
ATOM     17  C   UNL     1       6.034  18.262  -0.235  1.00  0.00    +0.001 A 
ATOM     18  C   UNL     1       7.378  18.281   0.137  1.00  0.00    +0.000 A 
ENDBRANCH  11  13
ENDBRANCH   5  11
BRANCH   9  19
ATOM     19  N   UNL     1      -0.465  11.885  -2.302  1.00  0.00    -0.261 N 
ATOM     20  C   UNL     1      -1.561  11.614  -1.535  1.00  0.00    +0.413 C 
ATOM     21  O   UNL     1      -1.684  11.659  -0.321  1.00  0.00    -0.224 OA
ATOM     22  H   UNL     1      -0.591  11.779  -3.294  1.00  0.00    +0.176 HD
BRANCH  20  23
ATOM     23  O   UNL     1      -2.572  11.259  -2.380  1.00  0.00    -0.453 OA
ATOM     24  C   UNL     1      -2.876  12.247  -3.367  1.00  0.00    +0.284 C 
ENDBRANCH  20  23
ENDBRANCH   9  19
TORSDOF 4
ENDMDL
MODEL 4
REMARK VINA RESULT:    -6.834      2.621      3.192
REMARK INTER + INTRA:          -9.053
REMARK INTER:                  -8.162
REMARK INTRA:                  -0.891
REMARK UNBOUND:                -0.621
REMARK SMILES COC(=O)Nc1nc2ccc(C(=O)c3ccccc3)cc2[nH]1
REMARK SMILES IDX 22 1 7 2 21 3 8 4 11 5 20 6 9 7 10 8 6 9 12 11 13 12 14 13
REMARK SMILES IDX 15 14 19 15 16 16 18 17 17 18 5 19 3 20 4 21 2 23 1 24
REMARK H PARENT 22 10 5 22
ROOT
ATOM      1  N   UNL     1       0.284  14.619   1.413  1.00  0.00    -0.324 N 
ATOM      2  N   UNL     1      -1.467  13.437   0.778  1.00  0.00    -0.213 NA
ATOM      3  C   UNL     1       0.691  13.945   0.290  1.00  0.00    +0.068 A 
ATOM      4  C   UNL     1      -0.425  13.206  -0.080  1.00  0.00    +0.091 A 
ATOM      5  C   UNL     1       1.953  13.086  -1.543  1.00  0.00    +0.025 A 
ATOM      6  C   UNL     1       1.901  13.911  -0.406  1.00  0.00    +0.040 A 
ATOM      7  C   UNL     1      -0.352  12.369  -1.203  1.00  0.00    +0.031 A 
ATOM      8  C   UNL     1       0.849  12.309  -1.925  1.00  0.00    +0.014 A 
ATOM      9  C   UNL     1      -1.023  14.287   1.671  1.00  0.00    +0.210 A 
ATOM     10  H   UNL     1       0.851  15.250   1.957  1.00  0.00    +0.170 HD
ENDROOT
BRANCH   5  11
ATOM     11  C   UNL     1       3.236  13.028  -2.292  1.00  0.00    +0.193 C 
ATOM     12  O   UNL     1       3.397  13.771  -3.259  1.00  0.00    -0.289 OA
BRANCH  11  13
ATOM     13  C   UNL     1       4.323  12.093  -1.908  1.00  0.00    +0.022 A 
ATOM     14  C   UNL     1       4.335  10.761  -2.336  1.00  0.00    +0.012 A 
ATOM     15  C   UNL     1       5.381  12.585  -1.134  1.00  0.00    +0.012 A 
ATOM     16  C   UNL     1       5.383   9.919  -1.961  1.00  0.00    +0.001 A 
ATOM     17  C   UNL     1       6.428  11.739  -0.762  1.00  0.00    +0.001 A 
ATOM     18  C   UNL     1       6.425  10.406  -1.172  1.00  0.00    +0.000 A 
ENDBRANCH  11  13
ENDBRANCH   5  11
BRANCH   9  19
ATOM     19  N   UNL     1      -1.679  14.829   2.743  1.00  0.00    -0.261 N 
ATOM     20  C   UNL     1      -1.884  16.170   2.890  1.00  0.00    +0.413 C 
ATOM     21  O   UNL     1      -1.547  17.087   2.159  1.00  0.00    -0.224 OA
ATOM     22  H   UNL     1      -2.045  14.249   3.478  1.00  0.00    +0.176 HD
BRANCH  20  23
ATOM     23  O   UNL     1      -2.568  16.352   4.057  1.00  0.00    -0.453 OA
ATOM     24  C   UNL     1      -2.287  15.366   5.053  1.00  0.00    +0.284 C 
ENDBRANCH  20  23
ENDBRANCH   9  19
TORSDOF 4
ENDMDL
MODEL 5
REMARK VINA RESULT:    -6.719      2.902      8.163
REMARK INTER + INTRA:          -8.911
REMARK INTER:                  -8.143
REMARK INTRA:                  -0.768
REMARK UNBOUND:                -0.621
REMARK SMILES COC(=O)Nc1nc2ccc(C(=O)c3ccccc3)cc2[nH]1
REMARK SMILES IDX 22 1 7 2 21 3 8 4 11 5 20 6 9 7 10 8 6 9 12 11 13 12 14 13
REMARK SMILES IDX 15 14 19 15 16 16 18 17 17 18 5 19 3 20 4 21 2 23 1 24
REMARK H PARENT 22 10 5 22
ROOT
ATOM      1  N   UNL     1       2.053  11.845  -2.251  1.00  0.00    -0.324 N 
ATOM      2  N   UNL     1       2.763  13.138  -0.610  1.00  0.00    -0.213 NA
ATOM      3  C   UNL     1       0.926  12.193  -1.551  1.00  0.00    +0.068 A 
ATOM      4  C   UNL     1       1.403  12.996  -0.524  1.00  0.00    +0.091 A 
ATOM      5  C   UNL     1      -1.321  12.431  -0.785  1.00  0.00    +0.025 A 
ATOM      6  C   UNL     1      -0.424  11.879  -1.717  1.00  0.00    +0.040 A 
ATOM      7  C   UNL     1       0.501  13.522   0.412  1.00  0.00    +0.031 A 
ATOM      8  C   UNL     1      -0.862  13.225   0.277  1.00  0.00    +0.014 A 
ATOM      9  C   UNL     1       3.138  12.437  -1.653  1.00  0.00    +0.210 A 
ATOM     10  H   UNL     1       2.079  11.253  -3.066  1.00  0.00    +0.170 HD
ENDROOT
BRANCH   5  11
ATOM     11  C   UNL     1      -2.762  12.099  -0.938  1.00  0.00    +0.193 C 
ATOM     12  O   UNL     1      -3.248  11.211  -0.240  1.00  0.00    -0.289 OA
BRANCH  11  13
ATOM     13  C   UNL     1      -3.626  12.806  -1.915  1.00  0.00    +0.022 A 
ATOM     14  C   UNL     1      -3.424  12.692  -3.296  1.00  0.00    +0.012 A 
ATOM     15  C   UNL     1      -4.695  13.569  -1.429  1.00  0.00    +0.012 A 
ATOM     16  C   UNL     1      -4.269  13.365  -4.181  1.00  0.00    +0.001 A 
ATOM     17  C   UNL     1      -5.537  14.240  -2.318  1.00  0.00    +0.001 A 
ATOM     18  C   UNL     1      -5.320  14.141  -3.692  1.00  0.00    +0.000 A 
ENDBRANCH  11  13
ENDBRANCH   5  11
BRANCH   9  19
ATOM     19  N   UNL     1       4.396  12.255  -2.158  1.00  0.00    -0.261 N 
ATOM     20  C   UNL     1       4.778  11.120  -2.813  1.00  0.00    +0.413 C 
ATOM     21  O   UNL     1       4.130  10.115  -3.058  1.00  0.00    -0.224 OA
ATOM     22  H   UNL     1       5.104  12.963  -2.067  1.00  0.00    +0.176 HD
BRANCH  20  23
ATOM     23  O   UNL     1       6.083  11.281  -3.181  1.00  0.00    -0.453 OA
ATOM     24  C   UNL     1       6.945  11.659  -2.106  1.00  0.00    +0.284 C 
ENDBRANCH  20  23
ENDBRANCH   9  19
TORSDOF 4
ENDMDL
MODEL 6
REMARK VINA RESULT:    -6.657      1.788      2.347
REMARK INTER + INTRA:          -8.835
REMARK INTER:                  -7.977
REMARK INTRA:                  -0.858
REMARK UNBOUND:                -0.621
REMARK SMILES COC(=O)Nc1nc2ccc(C(=O)c3ccccc3)cc2[nH]1
REMARK SMILES IDX 22 1 7 2 21 3 8 4 11 5 20 6 9 7 10 8 6 9 12 11 13 12 14 13
REMARK SMILES IDX 15 14 19 15 16 16 18 17 17 18 5 19 3 20 4 21 2 23 1 24
REMARK H PARENT 22 10 5 22
ROOT
ATOM      1  N   UNL     1      -0.688  13.207   0.495  1.00  0.00    -0.324 N 
ATOM      2  N   UNL     1      -1.015  14.084  -1.503  1.00  0.00    -0.213 NA
ATOM      3  C   UNL     1       0.565  13.497   0.018  1.00  0.00    +0.068 A 
ATOM      4  C   UNL     1       0.329  14.037  -1.239  1.00  0.00    +0.091 A 
ATOM      5  C   UNL     1       2.923  13.755  -0.239  1.00  0.00    +0.025 A 
ATOM      6  C   UNL     1       1.843  13.331   0.555  1.00  0.00    +0.040 A 
ATOM      7  C   UNL     1       1.416  14.435  -2.031  1.00  0.00    +0.031 A 
ATOM      8  C   UNL     1       2.714  14.281  -1.523  1.00  0.00    +0.014 A 
ATOM      9  C   UNL     1      -1.611  13.579  -0.451  1.00  0.00    +0.210 A 
ATOM     10  H   UNL     1      -0.894  12.790   1.389  1.00  0.00    +0.170 HD
ENDROOT
BRANCH   5  11
ATOM     11  C   UNL     1       4.293  13.577   0.311  1.00  0.00    +0.193 C 
ATOM     12  O   UNL     1       4.623  14.216   1.308  1.00  0.00    -0.289 OA
BRANCH  11  13
ATOM     13  C   UNL     1       5.272  12.654  -0.316  1.00  0.00    +0.022 A 
ATOM     14  C   UNL     1       4.871  11.472  -0.948  1.00  0.00    +0.012 A 
ATOM     15  C   UNL     1       6.626  13.013  -0.305  1.00  0.00    +0.012 A 
ATOM     16  C   UNL     1       5.824  10.639  -1.535  1.00  0.00    +0.001 A 
ATOM     17  C   UNL     1       7.575  12.177  -0.894  1.00  0.00    +0.001 A 
ATOM     18  C   UNL     1       7.175  10.989  -1.504  1.00  0.00    +0.000 A 
ENDBRANCH  11  13
ENDBRANCH   5  11
BRANCH   9  19
ATOM     19  N   UNL     1      -2.948  13.401  -0.224  1.00  0.00    -0.261 N 
ATOM     20  C   UNL     1      -3.527  12.170  -0.107  1.00  0.00    +0.413 C 
ATOM     21  O   UNL     1      -3.013  11.066  -0.180  1.00  0.00    -0.224 OA
ATOM     22  H   UNL     1      -3.571  14.185  -0.131  1.00  0.00    +0.176 HD
BRANCH  20  23
ATOM     23  O   UNL     1      -4.859  12.365   0.118  1.00  0.00    -0.453 OA
ATOM     24  C   UNL     1      -5.139  13.280   1.180  1.00  0.00    +0.284 C 
ENDBRANCH  20  23
ENDBRANCH   9  19
TORSDOF 4
ENDMDL
MODEL 7
REMARK VINA RESULT:    -6.620      5.297      6.075
REMARK INTER + INTRA:          -8.789
REMARK INTER:                  -8.334
REMARK INTRA:                  -0.455
REMARK UNBOUND:                -0.621
REMARK SMILES COC(=O)Nc1nc2ccc(C(=O)c3ccccc3)cc2[nH]1
REMARK SMILES IDX 22 1 7 2 21 3 8 4 11 5 20 6 9 7 10 8 6 9 12 11 13 12 14 13
REMARK SMILES IDX 15 14 19 15 16 16 18 17 17 18 5 19 3 20 4 21 2 23 1 24
REMARK H PARENT 22 10 5 22
ROOT
ATOM      1  N   UNL     1       2.225  15.893   1.098  1.00  0.00    -0.324 N 
ATOM      2  N   UNL     1       3.784  17.242   1.885  1.00  0.00    -0.213 NA
ATOM      3  C   UNL     1       3.408  15.226   0.911  1.00  0.00    +0.068 A 
ATOM      4  C   UNL     1       4.368  16.099   1.406  1.00  0.00    +0.091 A 
ATOM      5  C   UNL     1       5.072  13.616   0.336  1.00  0.00    +0.025 A 
ATOM      6  C   UNL     1       3.714  13.979   0.362  1.00  0.00    +0.040 A 
ATOM      7  C   UNL     1       5.721  15.734   1.353  1.00  0.00    +0.031 A 
ATOM      8  C   UNL     1       6.064  14.490   0.806  1.00  0.00    +0.014 A 
ATOM      9  C   UNL     1       2.495  17.102   1.691  1.00  0.00    +0.210 A 
ATOM     10  H   UNL     1       1.311  15.552   0.842  1.00  0.00    +0.170 HD
ENDROOT
BRANCH   5  11
ATOM     11  C   UNL     1       5.419  12.296  -0.255  1.00  0.00    +0.193 C 
ATOM     12  O   UNL     1       5.241  11.278   0.413  1.00  0.00    -0.289 OA
BRANCH  11  13
ATOM     13  C   UNL     1       5.980  12.176  -1.624  1.00  0.00    +0.022 A 
ATOM     14  C   UNL     1       7.337  11.914  -1.844  1.00  0.00    +0.012 A 
ATOM     15  C   UNL     1       5.106  12.286  -2.713  1.00  0.00    +0.012 A 
ATOM     16  C   UNL     1       7.820  11.797  -3.148  1.00  0.00    +0.001 A 
ATOM     17  C   UNL     1       5.594  12.168  -4.015  1.00  0.00    +0.001 A 
ATOM     18  C   UNL     1       6.951  11.929  -4.232  1.00  0.00    +0.000 A 
ENDBRANCH  11  13
ENDBRANCH   5  11
BRANCH   9  19
ATOM     19  N   UNL     1       1.481  17.970   1.993  1.00  0.00    -0.261 N 
ATOM     20  C   UNL     1       1.625  19.327   1.951  1.00  0.00    +0.413 C 
ATOM     21  O   UNL     1       2.607  19.990   1.661  1.00  0.00    -0.224 OA
ATOM     22  H   UNL     1       0.572  17.637   2.264  1.00  0.00    +0.176 HD
BRANCH  20  23
ATOM     23  O   UNL     1       0.426  19.875   2.303  1.00  0.00    -0.453 OA
ATOM     24  C   UNL     1      -0.259  19.157   3.332  1.00  0.00    +0.284 C 
ENDBRANCH  20  23
ENDBRANCH   9  19
TORSDOF 4
ENDMDL
MODEL 8
REMARK VINA RESULT:    -6.512      3.655      7.692
REMARK INTER + INTRA:          -8.656
REMARK INTER:                  -7.856
REMARK INTRA:                  -0.800
REMARK UNBOUND:                -0.621
REMARK SMILES COC(=O)Nc1nc2ccc(C(=O)c3ccccc3)cc2[nH]1
REMARK SMILES IDX 22 1 7 2 21 3 8 4 11 5 20 6 9 7 10 8 6 9 12 11 13 12 14 13
REMARK SMILES IDX 15 14 19 15 16 16 18 17 17 18 5 19 3 20 4 21 2 23 1 24
REMARK H PARENT 22 10 5 22
ROOT
ATOM      1  N   UNL     1       1.788  14.203   1.366  1.00  0.00    -0.324 N 
ATOM      2  N   UNL     1       3.309  13.811  -0.184  1.00  0.00    -0.213 NA
ATOM      3  C   UNL     1       1.137  13.491   0.392  1.00  0.00    +0.068 A 
ATOM      4  C   UNL     1       2.113  13.267  -0.570  1.00  0.00    +0.091 A 
ATOM      5  C   UNL     1      -0.498  12.325  -0.897  1.00  0.00    +0.025 A 
ATOM      6  C   UNL     1      -0.181  13.045   0.268  1.00  0.00    +0.040 A 
ATOM      7  C   UNL     1       1.778  12.567  -1.738  1.00  0.00    +0.031 A 
ATOM      8  C   UNL     1       0.463  12.106  -1.896  1.00  0.00    +0.014 A 
ATOM      9  C   UNL     1       3.096  14.372   0.982  1.00  0.00    +0.210 A 
ATOM     10  H   UNL     1       1.375  14.546   2.219  1.00  0.00    +0.170 HD
ENDROOT
BRANCH   5  11
ATOM     11  C   UNL     1      -1.899  11.851  -1.053  1.00  0.00    +0.193 C 
ATOM     12  O   UNL     1      -2.275  10.879  -0.400  1.00  0.00    -0.289 OA
BRANCH  11  13
ATOM     13  C   UNL     1      -2.849  12.515  -1.979  1.00  0.00    +0.022 A 
ATOM     14  C   UNL     1      -2.708  12.426  -3.368  1.00  0.00    +0.012 A 
ATOM     15  C   UNL     1      -3.937  13.207  -1.432  1.00  0.00    +0.012 A 
ATOM     16  C   UNL     1      -3.632  13.056  -4.203  1.00  0.00    +0.001 A 
ATOM     17  C   UNL     1      -4.859  13.835  -2.271  1.00  0.00    +0.001 A 
ATOM     18  C   UNL     1      -4.703  13.763  -3.655  1.00  0.00    +0.000 A 
ENDBRANCH  11  13
ENDBRANCH   5  11
BRANCH   9  19
ATOM     19  N   UNL     1       3.973  15.050   1.782  1.00  0.00    -0.261 N 
ATOM     20  C   UNL     1       3.848  16.380   2.065  1.00  0.00    +0.413 C 
ATOM     21  O   UNL     1       2.998  17.172   1.690  1.00  0.00    -0.224 OA
ATOM     22  H   UNL     1       4.761  14.589   2.203  1.00  0.00    +0.176 HD
BRANCH  20  23
ATOM     23  O   UNL     1       4.882  16.721   2.887  1.00  0.00    -0.453 OA
ATOM     24  C   UNL     1       5.278  15.680   3.783  1.00  0.00    +0.284 C 
ENDBRANCH  20  23
ENDBRANCH   9  19
TORSDOF 4
ENDMDL
MODEL 9
REMARK VINA RESULT:    -6.466      6.986      9.980
REMARK INTER + INTRA:          -8.599
REMARK INTER:                  -7.880
REMARK INTRA:                  -0.719
REMARK UNBOUND:                -0.621
REMARK SMILES COC(=O)Nc1nc2ccc(C(=O)c3ccccc3)cc2[nH]1
REMARK SMILES IDX 22 1 7 2 21 3 8 4 11 5 20 6 9 7 10 8 6 9 12 11 13 12 14 13
REMARK SMILES IDX 15 14 19 15 16 16 18 17 17 18 5 19 3 20 4 21 2 23 1 24
REMARK H PARENT 22 10 5 22
ROOT
ATOM      1  N   UNL     1       6.055  19.149  -1.275  1.00  0.00    -0.324 N 
ATOM      2  N   UNL     1       7.904  19.433  -0.104  1.00  0.00    -0.213 NA
ATOM      3  C   UNL     1       6.091  18.097  -0.395  1.00  0.00    +0.068 A 
ATOM      4  C   UNL     1       7.265  18.297   0.319  1.00  0.00    +0.091 A 
ATOM      5  C   UNL     1       5.599  16.115   0.837  1.00  0.00    +0.025 A 
ATOM      6  C   UNL     1       5.232  17.019  -0.175  1.00  0.00    +0.040 A 
ATOM      7  C   UNL     1       7.631  17.376   1.311  1.00  0.00    +0.031 A 
ATOM      8  C   UNL     1       6.792  16.279   1.557  1.00  0.00    +0.014 A 
ATOM      9  C   UNL     1       7.163  19.932  -1.064  1.00  0.00    +0.210 A 
ATOM     10  H   UNL     1       5.336  19.317  -1.960  1.00  0.00    +0.170 HD
ENDROOT
BRANCH   5  11
ATOM     11  C   UNL     1       4.702  14.953   1.079  1.00  0.00    +0.193 C 
ATOM     12  O   UNL     1       3.985  14.951   2.078  1.00  0.00    -0.289 OA
BRANCH  11  13
ATOM     13  C   UNL     1       4.656  13.796   0.151  1.00  0.00    +0.022 A 
ATOM     14  C   UNL     1       3.496  13.466  -0.558  1.00  0.00    +0.012 A 
ATOM     15  C   UNL     1       5.826  13.051  -0.041  1.00  0.00    +0.012 A 
ATOM     16  C   UNL     1       3.499  12.376  -1.430  1.00  0.00    +0.001 A 
ATOM     17  C   UNL     1       5.825  11.961  -0.914  1.00  0.00    +0.001 A 
ATOM     18  C   UNL     1       4.661  11.622  -1.604  1.00  0.00    +0.000 A 
ENDBRANCH  11  13
ENDBRANCH   5  11
BRANCH   9  19
ATOM     19  N   UNL     1       7.371  21.058  -1.812  1.00  0.00    -0.261 N 
ATOM     20  C   UNL     1       8.086  21.059  -2.975  1.00  0.00    +0.413 C 
ATOM     21  O   UNL     1       8.644  20.131  -3.538  1.00  0.00    -0.224 OA
ATOM     22  H   UNL     1       6.998  21.949  -1.531  1.00  0.00    +0.176 HD
BRANCH  20  23
ATOM     23  O   UNL     1       8.087  22.337  -3.452  1.00  0.00    -0.453 OA
ATOM     24  C   UNL     1       9.386  22.828  -3.792  1.00  0.00    +0.284 C 
ENDBRANCH  20  23
ENDBRANCH   9  19
TORSDOF 4
ENDMDL
