MODEL 1
REMARK VINA RESULT:    -5.108      0.000      0.000
REMARK INTER + INTRA:          -5.671
REMARK INTER:                  -5.407
REMARK INTRA:                  -0.265
REMARK UNBOUND:                -0.265
REMARK SMILES [H]/N=C(/N=C(N)N)N(C)C
REMARK SMILES IDX 4 1 6 2 7 3 5 4 3 9 8 10 2 11 9 12 10 13 1 14
REMARK H PARENT 6 5 6 6 7 7 7 8
ROOT
ATOM      1  N   UNL     1     -33.918  12.110 -28.755  1.00  0.00    -0.180 NA
ATOM      2  N   UNL     1     -35.856  11.063 -29.365  1.00  0.00    -0.370 N 
ATOM      3  N   UNL     1     -34.506  11.716 -31.030  1.00  0.00    -0.370 N 
ATOM      4  C   UNL     1     -34.696  11.680 -29.689  1.00  0.00    +0.194 C 
ATOM      5  H   UNL     1     -36.634  11.225 -29.985  1.00  0.00    +0.159 HD
ATOM      6  H   UNL     1     -36.091  11.198 -28.389  1.00  0.00    +0.159 HD
ATOM      7  H   UNL     1     -33.725  12.356 -31.221  1.00  0.00    +0.159 HD
ATOM      8  H   UNL     1     -35.312  12.002 -31.564  1.00  0.00    +0.159 HD
ENDROOT
BRANCH   1   9
ATOM      9  C   UNL     1     -32.726  12.716 -29.041  1.00  0.00    +0.220 C 
ATOM     10  N   UNL     1     -32.452  13.970 -28.534  1.00  0.00    -0.347 N 
ATOM     11  N   UNL     1     -31.893  12.103 -29.823  1.00  0.00    -0.267 NA
ATOM     12  C   UNL     1     -33.550  14.693 -27.890  1.00  0.00    +0.146 C 
ATOM     13  C   UNL     1     -31.160  14.201 -27.890  1.00  0.00    +0.146 C 
ATOM     14  H   UNL     1     -31.124  12.752 -29.990  1.00  0.00    +0.191 HD
ENDBRANCH   1   9
TORSDOF 1
ENDMDL
MODEL 2
REMARK VINA RESULT:    -4.954      9.202      9.771
REMARK INTER + INTRA:          -5.509
REMARK INTER:                  -5.349
REMARK INTRA:                  -0.160
REMARK UNBOUND:                -0.265
REMARK SMILES [H]/N=C(/N=C(N)N)N(C)C
REMARK SMILES IDX 4 1 6 2 7 3 5 4 3 9 8 10 2 11 9 12 10 13 1 14
REMARK H PARENT 6 5 6 6 7 7 7 8
ROOT
ATOM      1  N   UNL     1     -28.550   7.731 -23.381  1.00  0.00    -0.180 NA
ATOM      2  N   UNL     1     -27.841   6.051 -24.759  1.00  0.00    -0.370 N 
ATOM      3  N   UNL     1     -28.074   5.535 -22.592  1.00  0.00    -0.370 N 
ATOM      4  C   UNL     1     -28.168   6.508 -23.529  1.00  0.00    +0.194 C 
ATOM      5  H   UNL     1     -27.091   5.377 -24.798  1.00  0.00    +0.159 HD
ATOM      6  H   UNL     1     -27.729   6.809 -25.422  1.00  0.00    +0.159 HD
ATOM      7  H   UNL     1     -28.142   5.979 -21.667  1.00  0.00    +0.159 HD
ATOM      8  H   UNL     1     -27.233   4.983 -22.638  1.00  0.00    +0.159 HD
ENDROOT
BRANCH   1   9
ATOM      9  C   UNL     1     -28.913   8.224 -22.159  1.00  0.00    +0.220 C 
ATOM     10  N   UNL     1     -28.413   9.437 -21.728  1.00  0.00    -0.347 N 
ATOM     11  N   UNL     1     -29.698   7.509 -21.413  1.00  0.00    -0.267 NA
ATOM     12  C   UNL     1     -27.334  10.038 -22.513  1.00  0.00    +0.146 C 
ATOM     13  C   UNL     1     -29.339  10.424 -21.178  1.00  0.00    +0.146 C 
ATOM     14  H   UNL     1     -29.766   7.996 -20.519  1.00  0.00    +0.191 HD
ENDBRANCH   1   9
TORSDOF 1
ENDMDL
MODEL 3
REMARK VINA RESULT:    -4.919      1.254      2.169
REMARK INTER + INTRA:          -5.471
REMARK INTER:                  -5.193
REMARK INTRA:                  -0.278
REMARK UNBOUND:                -0.265
REMARK SMILES [H]/N=C(/N=C(N)N)N(C)C
REMARK SMILES IDX 4 1 6 2 7 3 5 4 3 9 8 10 2 11 9 12 10 13 1 14
REMARK H PARENT 6 5 6 6 7 7 7 8
ROOT
ATOM      1  N   UNL     1     -33.191  13.015 -29.557  1.00  0.00    -0.180 NA
ATOM      2  N   UNL     1     -34.594  11.699 -30.792  1.00  0.00    -0.370 N 
ATOM      3  N   UNL     1     -34.418  11.204 -28.614  1.00  0.00    -0.370 N 
ATOM      4  C   UNL     1     -34.004  12.016 -29.616  1.00  0.00    +0.194 C 
ATOM      5  H   UNL     1     -34.747  10.717 -30.962  1.00  0.00    +0.159 HD
ATOM      6  H   UNL     1     -34.153  12.174 -31.570  1.00  0.00    +0.159 HD
ATOM      7  H   UNL     1     -33.803  11.361 -27.805  1.00  0.00    +0.159 HD
ATOM      8  H   UNL     1     -34.429  10.223 -28.841  1.00  0.00    +0.159 HD
ENDROOT
BRANCH   1   9
ATOM      9  C   UNL     1     -32.595  13.383 -28.383  1.00  0.00    +0.220 C 
ATOM     10  N   UNL     1     -31.219  13.356 -28.271  1.00  0.00    -0.347 N 
ATOM     11  N   UNL     1     -33.352  13.714 -27.382  1.00  0.00    -0.267 NA
ATOM     12  C   UNL     1     -30.467  12.718 -29.351  1.00  0.00    +0.146 C 
ATOM     13  C   UNL     1     -30.537  14.519 -27.708  1.00  0.00    +0.146 C 
ATOM     14  H   UNL     1     -32.730  13.854 -26.586  1.00  0.00    +0.191 HD
ENDBRANCH   1   9
TORSDOF 1
ENDMDL
MODEL 4
REMARK VINA RESULT:    -4.904     25.134     25.965
REMARK INTER + INTRA:          -5.455
REMARK INTER:                  -5.179
REMARK INTRA:                  -0.277
REMARK UNBOUND:                -0.265
REMARK SMILES [H]/N=C(/N=C(N)N)N(C)C
REMARK SMILES IDX 4 1 6 2 7 3 5 4 3 9 8 10 2 11 9 12 10 13 1 14
REMARK H PARENT 6 5 6 6 7 7 7 8
ROOT
ATOM      1  N   UNL     1     -18.464  -7.459 -21.584  1.00  0.00    -0.180 NA
ATOM      2  N   UNL     1     -18.757  -9.602 -20.842  1.00  0.00    -0.370 N 
ATOM      3  N   UNL     1     -17.274  -9.310 -22.497  1.00  0.00    -0.370 N 
ATOM      4  C   UNL     1     -18.168  -8.711 -21.673  1.00  0.00    +0.194 C 
ATOM      5  H   UNL     1     -18.952 -10.511 -21.231  1.00  0.00    +0.159 HD
ATOM      6  H   UNL     1     -19.550  -9.196 -20.362  1.00  0.00    +0.159 HD
ATOM      7  H   UNL     1     -17.010  -8.632 -23.223  1.00  0.00    +0.159 HD
ATOM      8  H   UNL     1     -17.602 -10.158 -22.933  1.00  0.00    +0.159 HD
ENDROOT
BRANCH   1   9
ATOM      9  C   UNL     1     -17.872  -6.526 -22.389  1.00  0.00    +0.220 C 
ATOM     10  N   UNL     1     -18.648  -5.746 -23.223  1.00  0.00    -0.347 N 
ATOM     11  N   UNL     1     -16.579  -6.426 -22.373  1.00  0.00    -0.267 NA
ATOM     12  C   UNL     1     -20.057  -6.110 -23.371  1.00  0.00    +0.146 C 
ATOM     13  C   UNL     1     -18.425  -4.301 -23.242  1.00  0.00    +0.146 C 
ATOM     14  H   UNL     1     -16.334  -5.756 -23.102  1.00  0.00    +0.191 HD
ENDBRANCH   1   9
TORSDOF 1
ENDMDL
MODEL 5
REMARK VINA RESULT:    -4.900      8.436      9.644
REMARK INTER + INTRA:          -5.451
REMARK INTER:                  -5.159
REMARK INTRA:                  -0.292
REMARK UNBOUND:                -0.265
REMARK SMILES [H]/N=C(/N=C(N)N)N(C)C
REMARK SMILES IDX 4 1 6 2 7 3 5 4 3 9 8 10 2 11 9 12 10 13 1 14
REMARK H PARENT 6 5 6 6 7 7 7 8
ROOT
ATOM      1  N   UNL     1     -25.610   7.716 -25.399  1.00  0.00    -0.180 NA
ATOM      2  N   UNL     1     -26.027   5.492 -25.720  1.00  0.00    -0.370 N 
ATOM      3  N   UNL     1     -27.180   6.499 -24.083  1.00  0.00    -0.370 N 
ATOM      4  C   UNL     1     -26.243   6.648 -25.051  1.00  0.00    +0.194 C 
ATOM      5  H   UNL     1     -26.062   4.647 -25.171  1.00  0.00    +0.159 HD
ATOM      6  H   UNL     1     -25.206   5.550 -26.310  1.00  0.00    +0.159 HD
ATOM      7  H   UNL     1     -27.159   7.340 -23.492  1.00  0.00    +0.159 HD
ATOM      8  H   UNL     1     -27.066   5.681 -23.507  1.00  0.00    +0.159 HD
ENDROOT
BRANCH   1   9
ATOM      9  C   UNL     1     -25.819   8.909 -24.764  1.00  0.00    +0.220 C 
ATOM     10  N   UNL     1     -26.117  10.039 -25.500  1.00  0.00    -0.347 N 
ATOM     11  N   UNL     1     -25.690   8.954 -23.474  1.00  0.00    -0.267 NA
ATOM     12  C   UNL     1     -25.976   9.953 -26.954  1.00  0.00    +0.146 C 
ATOM     13  C   UNL     1     -27.241  10.873 -25.082  1.00  0.00    +0.146 C 
ATOM     14  H   UNL     1     -25.785   9.934 -23.209  1.00  0.00    +0.191 HD
ENDBRANCH   1   9
TORSDOF 1
ENDMDL
MODEL 6
REMARK VINA RESULT:    -4.815     21.603     22.533
REMARK INTER + INTRA:          -5.361
REMARK INTER:                  -5.056
REMARK INTRA:                  -0.305
REMARK UNBOUND:                -0.265
REMARK SMILES [H]/N=C(/N=C(N)N)N(C)C
REMARK SMILES IDX 4 1 6 2 7 3 5 4 3 9 8 10 2 11 9 12 10 13 1 14
REMARK H PARENT 6 5 6 6 7 7 7 8
ROOT
ATOM      1  N   UNL     1     -20.092  -3.342 -23.831  1.00  0.00    -0.180 NA
ATOM      2  N   UNL     1     -21.060  -2.048 -25.448  1.00  0.00    -0.370 N 
ATOM      3  N   UNL     1     -19.339  -3.331 -26.091  1.00  0.00    -0.370 N 
ATOM      4  C   UNL     1     -20.123  -2.943 -25.057  1.00  0.00    +0.194 C 
ATOM      5  H   UNL     1     -20.773  -1.382 -26.149  1.00  0.00    +0.159 HD
ATOM      6  H   UNL     1     -21.520  -1.618 -24.655  1.00  0.00    +0.159 HD
ATOM      7  H   UNL     1     -18.539  -3.848 -25.704  1.00  0.00    +0.159 HD
ATOM      8  H   UNL     1     -19.004  -2.581 -26.673  1.00  0.00    +0.159 HD
ENDROOT
BRANCH   1   9
ATOM      9  C   UNL     1     -19.177  -4.263 -23.402  1.00  0.00    +0.220 C 
ATOM     10  N   UNL     1     -19.567  -5.567 -23.175  1.00  0.00    -0.347 N 
ATOM     11  N   UNL     1     -17.962  -3.869 -23.179  1.00  0.00    -0.267 NA
ATOM     12  C   UNL     1     -21.002  -5.855 -23.193  1.00  0.00    +0.146 C 
ATOM     13  C   UNL     1     -18.759  -6.649 -23.734  1.00  0.00    +0.146 C 
ATOM     14  H   UNL     1     -17.470  -4.667 -22.777  1.00  0.00    +0.191 HD
ENDBRANCH   1   9
TORSDOF 1
ENDMDL
MODEL 7
REMARK VINA RESULT:    -4.774     11.450     12.438
REMARK INTER + INTRA:          -5.318
REMARK INTER:                  -4.990
REMARK INTRA:                  -0.329
REMARK UNBOUND:                -0.265
REMARK SMILES [H]/N=C(/N=C(N)N)N(C)C
REMARK SMILES IDX 4 1 6 2 7 3 5 4 3 9 8 10 2 11 9 12 10 13 1 14
REMARK H PARENT 6 5 6 6 7 7 7 8
ROOT
ATOM      1  N   UNL     1     -44.487  14.089 -33.383  1.00  0.00    -0.180 NA
ATOM      2  N   UNL     1     -45.102  12.323 -32.067  1.00  0.00    -0.370 N 
ATOM      3  N   UNL     1     -44.600  14.233 -31.008  1.00  0.00    -0.370 N 
ATOM      4  C   UNL     1     -44.695  13.606 -32.205  1.00  0.00    +0.194 C 
ATOM      5  H   UNL     1     -44.752  11.830 -31.260  1.00  0.00    +0.159 HD
ATOM      6  H   UNL     1     -44.995  11.803 -32.929  1.00  0.00    +0.159 HD
ATOM      7  H   UNL     1     -44.107  15.123 -31.155  1.00  0.00    +0.159 HD
ATOM      8  H   UNL     1     -44.130  13.705 -30.290  1.00  0.00    +0.159 HD
ENDROOT
BRANCH   1   9
ATOM      9  C   UNL     1     -44.099  15.387 -33.565  1.00  0.00    +0.220 C 
ATOM     10  N   UNL     1     -44.974  16.294 -34.129  1.00  0.00    -0.347 N 
ATOM     11  N   UNL     1     -42.891  15.723 -33.235  1.00  0.00    -0.267 NA
ATOM     12  C   UNL     1     -46.208  15.769 -34.714  1.00  0.00    +0.146 C 
ATOM     13  C   UNL     1     -45.154  17.592 -33.481  1.00  0.00    +0.146 C 
ATOM     14  H   UNL     1     -42.769  16.690 -33.537  1.00  0.00    +0.191 HD
ENDBRANCH   1   9
TORSDOF 1
ENDMDL
MODEL 8
REMARK VINA RESULT:    -4.751     22.663     23.577
REMARK INTER + INTRA:          -5.294
REMARK INTER:                  -5.164
REMARK INTRA:                  -0.130
REMARK UNBOUND:                -0.265
REMARK SMILES [H]/N=C(/N=C(N)N)N(C)C
REMARK SMILES IDX 4 1 6 2 7 3 5 4 3 9 8 10 2 11 9 12 10 13 1 14
REMARK H PARENT 6 5 6 6 7 7 7 8
ROOT
ATOM      1  N   UNL     1     -30.083  -8.566 -20.064  1.00  0.00    -0.180 NA
ATOM      2  N   UNL     1     -30.778  -7.045 -18.506  1.00  0.00    -0.370 N 
ATOM      3  N   UNL     1     -31.520  -6.743 -20.599  1.00  0.00    -0.370 N 
ATOM      4  C   UNL     1     -30.754  -7.503 -19.779  1.00  0.00    +0.194 C 
ATOM      5  H   UNL     1     -30.805  -6.043 -18.394  1.00  0.00    +0.159 HD
ATOM      6  H   UNL     1     -30.069  -7.490 -17.936  1.00  0.00    +0.159 HD
ATOM      7  H   UNL     1     -31.311  -7.014 -21.568  1.00  0.00    +0.159 HD
ATOM      8  H   UNL     1     -31.394  -5.749 -20.494  1.00  0.00    +0.159 HD
ENDROOT
BRANCH   1   9
ATOM      9  C   UNL     1     -30.054  -9.075 -21.333  1.00  0.00    +0.220 C 
ATOM     10  N   UNL     1     -30.115 -10.440 -21.530  1.00  0.00    -0.347 N 
ATOM     11  N   UNL     1     -29.930  -8.250 -22.327  1.00  0.00    -0.267 NA
ATOM     12  C   UNL     1     -29.982 -11.298 -20.352  1.00  0.00    +0.146 C 
ATOM     13  C   UNL     1     -31.053 -10.966 -22.519  1.00  0.00    +0.146 C 
ATOM     14  H   UNL     1     -29.830  -8.823 -23.165  1.00  0.00    +0.191 HD
ENDBRANCH   1   9
TORSDOF 1
ENDMDL
