MODEL 1
REMARK VINA RESULT:    -4.971      0.000      0.000
REMARK INTER + INTRA:          -5.520
REMARK INTER:                  -5.262
REMARK INTRA:                  -0.258
REMARK UNBOUND:                -0.258
REMARK SMILES [H]/N=C(/N=C(N)N)N(C)C
REMARK SMILES IDX 4 1 6 2 7 3 5 4 3 9 8 10 2 11 9 12 10 13 1 14
REMARK H PARENT 6 5 6 6 7 7 7 8
ROOT
ATOM      1  N   UNL     1     -38.423   6.032   8.371  1.00  0.00    -0.180 NA
ATOM      2  N   UNL     1     -40.061   5.910   6.781  1.00  0.00    -0.370 N 
ATOM      3  N   UNL     1     -39.865   7.860   7.868  1.00  0.00    -0.370 N 
ATOM      4  C   UNL     1     -39.396   6.595   7.740  1.00  0.00    +0.194 C 
ATOM      5  H   UNL     1     -41.049   6.097   6.705  1.00  0.00    +0.159 HD
ATOM      6  H   UNL     1     -39.845   4.921   6.812  1.00  0.00    +0.159 HD
ATOM      7  H   UNL     1     -39.465   8.260   8.727  1.00  0.00    +0.159 HD
ATOM      8  H   UNL     1     -40.869   7.938   7.898  1.00  0.00    +0.159 HD
ENDROOT
BRANCH   1   9
ATOM      9  C   UNL     1     -37.710   6.699   9.329  1.00  0.00    +0.220 C 
ATOM     10  N   UNL     1     -37.846   6.348  10.657  1.00  0.00    -0.347 N 
ATOM     11  N   UNL     1     -36.947   7.680   8.960  1.00  0.00    -0.267 NA
ATOM     12  C   UNL     1     -38.923   5.419  11.003  1.00  0.00    +0.146 C 
ATOM     13  C   UNL     1     -36.641   6.152  11.459  1.00  0.00    +0.146 C 
ATOM     14  H   UNL     1     -36.588   8.103   9.816  1.00  0.00    +0.191 HD
ENDBRANCH   1   9
TORSDOF 1
ENDMDL
MODEL 2
REMARK VINA RESULT:    -4.565      1.969      3.649
REMARK INTER + INTRA:          -5.090
REMARK INTER:                  -4.796
REMARK INTRA:                  -0.294
REMARK UNBOUND:                -0.258
REMARK SMILES [H]/N=C(/N=C(N)N)N(C)C
REMARK SMILES IDX 4 1 6 2 7 3 5 4 3 9 8 10 2 11 9 12 10 13 1 14
REMARK H PARENT 6 5 6 6 7 7 7 8
ROOT
ATOM      1  N   UNL     1     -37.692   7.777  11.019  1.00  0.00    -0.180 NA
ATOM      2  N   UNL     1     -37.561   9.634  12.346  1.00  0.00    -0.370 N 
ATOM      3  N   UNL     1     -37.497   9.980  10.133  1.00  0.00    -0.370 N 
ATOM      4  C   UNL     1     -37.575   9.057  11.122  1.00  0.00    +0.194 C 
ATOM      5  H   UNL     1     -36.969  10.443  12.450  1.00  0.00    +0.159 HD
ATOM      6  H   UNL     1     -37.431   8.948  13.080  1.00  0.00    +0.159 HD
ATOM      7  H   UNL     1     -37.316   9.483   9.251  1.00  0.00    +0.159 HD
ATOM      8  H   UNL     1     -36.794  10.688  10.270  1.00  0.00    +0.159 HD
ENDROOT
BRANCH   1   9
ATOM      9  C   UNL     1     -37.735   7.159   9.800  1.00  0.00    +0.220 C 
ATOM     10  N   UNL     1     -38.764   6.287   9.506  1.00  0.00    -0.347 N 
ATOM     11  N   UNL     1     -36.772   7.383   8.960  1.00  0.00    -0.267 NA
ATOM     12  C   UNL     1     -39.648   5.892  10.603  1.00  0.00    +0.146 C 
ATOM     13  C   UNL     1     -39.463   6.431   8.231  1.00  0.00    +0.146 C 
ATOM     14  H   UNL     1     -36.934   6.763   8.166  1.00  0.00    +0.191 HD
ENDBRANCH   1   9
TORSDOF 1
ENDMDL
MODEL 3
REMARK VINA RESULT:    -4.445      2.017      2.710
REMARK INTER + INTRA:          -4.963
REMARK INTER:                  -4.631
REMARK INTRA:                  -0.332
REMARK UNBOUND:                -0.258
REMARK SMILES [H]/N=C(/N=C(N)N)N(C)C
REMARK SMILES IDX 4 1 6 2 7 3 5 4 3 9 8 10 2 11 9 12 10 13 1 14
REMARK H PARENT 6 5 6 6 7 7 7 8
ROOT
ATOM      1  N   UNL     1     -38.783   7.714   7.687  1.00  0.00    -0.180 NA
ATOM      2  N   UNL     1     -40.068   6.023   6.840  1.00  0.00    -0.370 N 
ATOM      3  N   UNL     1     -39.263   5.728   8.911  1.00  0.00    -0.370 N 
ATOM      4  C   UNL     1     -39.314   6.548   7.834  1.00  0.00    +0.194 C 
ATOM      5  H   UNL     1     -40.008   5.024   6.718  1.00  0.00    +0.159 HD
ATOM      6  H   UNL     1     -39.956   6.538   5.975  1.00  0.00    +0.159 HD
ATOM      7  H   UNL     1     -38.532   6.080   9.542  1.00  0.00    +0.159 HD
ATOM      8  H   UNL     1     -39.084   4.760   8.698  1.00  0.00    +0.159 HD
ENDROOT
BRANCH   1   9
ATOM      9  C   UNL     1     -38.036   8.290   8.676  1.00  0.00    +0.220 C 
ATOM     10  N   UNL     1     -38.501   9.416   9.324  1.00  0.00    -0.347 N 
ATOM     11  N   UNL     1     -36.878   7.776   8.954  1.00  0.00    -0.267 NA
ATOM     12  C   UNL     1     -39.681  10.077   8.765  1.00  0.00    +0.146 C 
ATOM     13  C   UNL     1     -38.462   9.453  10.785  1.00  0.00    +0.146 C 
ATOM     14  H   UNL     1     -36.443   8.398   9.636  1.00  0.00    +0.191 HD
ENDBRANCH   1   9
TORSDOF 1
ENDMDL
MODEL 4
REMARK VINA RESULT:    -4.430      1.371      3.427
REMARK INTER + INTRA:          -4.947
REMARK INTER:                  -4.620
REMARK INTRA:                  -0.327
REMARK UNBOUND:                -0.258
REMARK SMILES [H]/N=C(/N=C(N)N)N(C)C
REMARK SMILES IDX 4 1 6 2 7 3 5 4 3 9 8 10 2 11 9 12 10 13 1 14
REMARK H PARENT 6 5 6 6 7 7 7 8
ROOT
ATOM      1  N   UNL     1     -38.343   5.877   9.627  1.00  0.00    -0.180 NA
ATOM      2  N   UNL     1     -38.739   4.698  11.545  1.00  0.00    -0.370 N 
ATOM      3  N   UNL     1     -38.262   6.874  11.789  1.00  0.00    -0.370 N 
ATOM      4  C   UNL     1     -38.421   5.852  10.914  1.00  0.00    +0.194 C 
ATOM      5  H   UNL     1     -38.294   4.542  12.436  1.00  0.00    +0.159 HD
ATOM      6  H   UNL     1     -38.674   3.902  10.923  1.00  0.00    +0.159 HD
ATOM      7  H   UNL     1     -37.838   7.661  11.282  1.00  0.00    +0.159 HD
ATOM      8  H   UNL     1     -37.703   6.656  12.598  1.00  0.00    +0.159 HD
ENDROOT
BRANCH   1   9
ATOM      9  C   UNL     1     -38.049   7.029   8.951  1.00  0.00    +0.220 C 
ATOM     10  N   UNL     1     -39.024   7.655   8.201  1.00  0.00    -0.347 N 
ATOM     11  N   UNL     1     -36.835   7.483   9.004  1.00  0.00    -0.267 NA
ATOM     12  C   UNL     1     -40.277   6.932   7.983  1.00  0.00    +0.146 C 
ATOM     13  C   UNL     1     -39.214   9.096   8.359  1.00  0.00    +0.146 C 
ATOM     14  H   UNL     1     -36.798   8.278   8.364  1.00  0.00    +0.191 HD
ENDBRANCH   1   9
TORSDOF 1
ENDMDL
MODEL 5
REMARK VINA RESULT:    -4.373      1.978      2.279
REMARK INTER + INTRA:          -4.887
REMARK INTER:                  -4.611
REMARK INTRA:                  -0.276
REMARK UNBOUND:                -0.258
REMARK SMILES [H]/N=C(/N=C(N)N)N(C)C
REMARK SMILES IDX 4 1 6 2 7 3 5 4 3 9 8 10 2 11 9 12 10 13 1 14
REMARK H PARENT 6 5 6 6 7 7 7 8
ROOT
ATOM      1  N   UNL     1     -37.363   7.745   9.209  1.00  0.00    -0.180 NA
ATOM      2  N   UNL     1     -38.303   9.064   7.595  1.00  0.00    -0.370 N 
ATOM      3  N   UNL     1     -38.179   9.939   9.654  1.00  0.00    -0.370 N 
ATOM      4  C   UNL     1     -37.925   8.858   8.877  1.00  0.00    +0.194 C 
ATOM      5  H   UNL     1     -39.145   9.600   7.460  1.00  0.00    +0.159 HD
ATOM      6  H   UNL     1     -38.289   8.204   7.059  1.00  0.00    +0.159 HD
ATOM      7  H   UNL     1     -38.056   9.659  10.635  1.00  0.00    +0.159 HD
ATOM      8  H   UNL     1     -39.095  10.341   9.532  1.00  0.00    +0.159 HD
ENDROOT
BRANCH   1   9
ATOM      9  C   UNL     1     -36.944   7.509  10.489  1.00  0.00    +0.220 C 
ATOM     10  N   UNL     1     -37.458   6.440  11.195  1.00  0.00    -0.347 N 
ATOM     11  N   UNL     1     -36.094   8.330  11.022  1.00  0.00    -0.267 NA
ATOM     12  C   UNL     1     -38.601   5.735  10.614  1.00  0.00    +0.146 C 
ATOM     13  C   UNL     1     -36.534   5.552  11.897  1.00  0.00    +0.146 C 
ATOM     14  H   UNL     1     -35.989   8.042  11.995  1.00  0.00    +0.191 HD
ENDBRANCH   1   9
TORSDOF 1
ENDMDL
MODEL 6
REMARK VINA RESULT:    -4.371      9.468     11.405
REMARK INTER + INTRA:          -4.884
REMARK INTER:                  -4.557
REMARK INTRA:                  -0.327
REMARK UNBOUND:                -0.258
REMARK SMILES [H]/N=C(/N=C(N)N)N(C)C
REMARK SMILES IDX 4 1 6 2 7 3 5 4 3 9 8 10 2 11 9 12 10 13 1 14
REMARK H PARENT 6 5 6 6 7 7 7 8
ROOT
ATOM      1  N   UNL     1     -39.340  10.506  19.923  1.00  0.00    -0.180 NA
ATOM      2  N   UNL     1     -38.347  10.724  21.971  1.00  0.00    -0.370 N 
ATOM      3  N   UNL     1     -37.550   9.107  20.641  1.00  0.00    -0.370 N 
ATOM      4  C   UNL     1     -38.461  10.100  20.776  1.00  0.00    +0.194 C 
ATOM      5  H   UNL     1     -38.111  10.139  22.758  1.00  0.00    +0.159 HD
ATOM      6  H   UNL     1     -39.136  11.333  22.151  1.00  0.00    +0.159 HD
ATOM      7  H   UNL     1     -37.808   8.552  19.815  1.00  0.00    +0.159 HD
ATOM      8  H   UNL     1     -37.465   8.499  21.440  1.00  0.00    +0.159 HD
ENDROOT
BRANCH   1   9
ATOM      9  C   UNL     1     -39.469   9.918  18.696  1.00  0.00    +0.220 C 
ATOM     10  N   UNL     1     -39.274  10.664  17.551  1.00  0.00    -0.347 N 
ATOM     11  N   UNL     1     -39.815   8.669  18.643  1.00  0.00    -0.267 NA
ATOM     12  C   UNL     1     -39.154  12.114  17.703  1.00  0.00    +0.146 C 
ATOM     13  C   UNL     1     -38.414  10.124  16.500  1.00  0.00    +0.146 C 
ATOM     14  H   UNL     1     -39.954   8.451  17.656  1.00  0.00    +0.191 HD
ENDBRANCH   1   9
TORSDOF 1
ENDMDL
MODEL 7
REMARK VINA RESULT:    -4.366      6.012      6.975
REMARK INTER + INTRA:          -4.879
REMARK INTER:                  -4.551
REMARK INTRA:                  -0.328
REMARK UNBOUND:                -0.258
REMARK SMILES [H]/N=C(/N=C(N)N)N(C)C
REMARK SMILES IDX 4 1 6 2 7 3 5 4 3 9 8 10 2 11 9 12 10 13 1 14
REMARK H PARENT 6 5 6 6 7 7 7 8
ROOT
ATOM      1  N   UNL     1     -38.091   8.177  14.399  1.00  0.00    -0.180 NA
ATOM      2  N   UNL     1     -38.244   6.372  15.795  1.00  0.00    -0.370 N 
ATOM      3  N   UNL     1     -37.433   8.261  16.687  1.00  0.00    -0.370 N 
ATOM      4  C   UNL     1     -37.907   7.663  15.568  1.00  0.00    +0.194 C 
ATOM      5  H   UNL     1     -37.651   5.864  16.432  1.00  0.00    +0.159 HD
ATOM      6  H   UNL     1     -38.419   5.875  14.930  1.00  0.00    +0.159 HD
ATOM      7  H   UNL     1     -37.017   9.160  16.414  1.00  0.00    +0.159 HD
ATOM      8  H   UNL     1     -36.755   7.720  17.201  1.00  0.00    +0.159 HD
ENDROOT
BRANCH   1   9
ATOM      9  C   UNL     1     -37.787   9.484  14.137  1.00  0.00    +0.220 C 
ATOM     10  N   UNL     1     -38.799  10.396  13.917  1.00  0.00    -0.347 N 
ATOM     11  N   UNL     1     -36.537   9.824  14.063  1.00  0.00    -0.267 NA
ATOM     12  C   UNL     1     -40.156   9.873  13.755  1.00  0.00    +0.146 C 
ATOM     13  C   UNL     1     -38.759  11.674  14.626  1.00  0.00    +0.146 C 
ATOM     14  H   UNL     1     -36.522  10.799  13.765  1.00  0.00    +0.191 HD
ENDBRANCH   1   9
TORSDOF 1
ENDMDL
MODEL 8
REMARK VINA RESULT:    -4.313     10.096     11.156
REMARK INTER + INTRA:          -4.823
REMARK INTER:                  -4.628
REMARK INTRA:                  -0.195
REMARK UNBOUND:                -0.258
REMARK SMILES [H]/N=C(/N=C(N)N)N(C)C
REMARK SMILES IDX 4 1 6 2 7 3 5 4 3 9 8 10 2 11 9 12 10 13 1 14
REMARK H PARENT 6 5 6 6 7 7 7 8
ROOT
ATOM      1  N   UNL     1     -42.403  17.081   7.545  1.00  0.00    -0.180 NA
ATOM      2  N   UNL     1     -43.205  19.042   6.687  1.00  0.00    -0.370 N 
ATOM      3  N   UNL     1     -40.978  18.788   6.691  1.00  0.00    -0.370 N 
ATOM      4  C   UNL     1     -42.171  18.235   7.019  1.00  0.00    +0.194 C 
ATOM      5  H   UNL     1     -43.052  20.032   6.805  1.00  0.00    +0.159 HD
ATOM      6  H   UNL     1     -44.074  18.723   7.096  1.00  0.00    +0.159 HD
ATOM      7  H   UNL     1     -40.238  18.231   7.136  1.00  0.00    +0.159 HD
ATOM      8  H   UNL     1     -40.873  19.755   6.953  1.00  0.00    +0.159 HD
ENDROOT
BRANCH   1   9
ATOM      9  C   UNL     1     -41.387  16.227   7.872  1.00  0.00    +0.220 C 
ATOM     10  N   UNL     1     -40.977  16.115   9.186  1.00  0.00    -0.347 N 
ATOM     11  N   UNL     1     -40.805  15.566   6.920  1.00  0.00    -0.267 NA
ATOM     12  C   UNL     1     -41.505  17.088  10.142  1.00  0.00    +0.146 C 
ATOM     13  C   UNL     1     -40.812  14.781   9.759  1.00  0.00    +0.146 C 
ATOM     14  H   UNL     1     -40.023  15.072   7.350  1.00  0.00    +0.191 HD
ENDBRANCH   1   9
TORSDOF 1
ENDMDL
MODEL 9
REMARK VINA RESULT:    -4.216      2.785      3.389
REMARK INTER + INTRA:          -4.720
REMARK INTER:                  -4.389
REMARK INTRA:                  -0.331
REMARK UNBOUND:                -0.258
REMARK SMILES [H]/N=C(/N=C(N)N)N(C)C
REMARK SMILES IDX 4 1 6 2 7 3 5 4 3 9 8 10 2 11 9 12 10 13 1 14
REMARK H PARENT 6 5 6 6 7 7 7 8
ROOT
ATOM      1  N   UNL     1     -39.187  10.112  10.117  1.00  0.00    -0.180 NA
ATOM      2  N   UNL     1     -40.651  11.332   8.855  1.00  0.00    -0.370 N 
ATOM      3  N   UNL     1     -39.010  10.283   7.748  1.00  0.00    -0.370 N 
ATOM      4  C   UNL     1     -39.557  10.543   8.959  1.00  0.00    +0.194 C 
ATOM      5  H   UNL     1     -40.616  12.049   8.147  1.00  0.00    +0.159 HD
ATOM      6  H   UNL     1     -40.949  11.679   9.758  1.00  0.00    +0.159 HD
ATOM      7  H   UNL     1     -38.089   9.852   7.903  1.00  0.00    +0.159 HD
ATOM      8  H   UNL     1     -38.908  11.086   7.148  1.00  0.00    +0.159 HD
ENDROOT
BRANCH   1   9
ATOM      9  C   UNL     1     -38.102   9.293  10.262  1.00  0.00    +0.220 C 
ATOM     10  N   UNL     1     -38.277   7.983  10.661  1.00  0.00    -0.347 N 
ATOM     11  N   UNL     1     -36.922   9.789  10.056  1.00  0.00    -0.267 NA
ATOM     12  C   UNL     1     -39.607   7.591  11.128  1.00  0.00    +0.146 C 
ATOM     13  C   UNL     1     -37.597   6.925   9.916  1.00  0.00    +0.146 C 
ATOM     14  H   UNL     1     -36.255   9.059  10.309  1.00  0.00    +0.191 HD
ENDBRANCH   1   9
TORSDOF 1
ENDMDL
