MODEL 1
REMARK VINA RESULT:    -7.127      0.000      0.000
REMARK INTER + INTRA:          -9.222
REMARK INTER:                  -8.586
REMARK INTRA:                  -0.636
REMARK UNBOUND:                -0.636
REMARK SMILES O=C(Nc1ccc([N+](=O)[O-])cc1Cl)c1cc(Cl)ccc1O
REMARK SMILES IDX 1 1 3 2 2 3 4 5 12 6 11 7 5 8 7 9 6 10 13 11 8 12 9 13 10 14
REMARK SMILES IDX 14 15 20 16 15 17 19 18 16 19 18 20 17 21 21 22
REMARK H PARENT 3 4 21 23
ROOT
ATOM      1  O   UNL     1     -22.285  12.192 -13.700  1.00  0.00    -0.269 OA
ATOM      2  N   UNL     1     -24.538  11.689 -13.409  1.00  0.00    -0.321 N 
ATOM      3  C   UNL     1     -23.182  11.461 -13.289  1.00  0.00    +0.259 C 
ATOM      4  H   UNL     1     -25.172  10.930 -13.179  1.00  0.00    +0.170 HD
ENDROOT
BRANCH   2   5
ATOM      5  C   UNL     1     -25.181  12.836 -13.937  1.00  0.00    +0.060 A 
ATOM      6  C   UNL     1     -25.938  13.639 -13.058  1.00  0.00    +0.071 A 
ATOM      7  C   UNL     1     -26.598  14.786 -13.506  1.00  0.00    +0.108 A 
ATOM      8  C   UNL     1     -25.093  13.217 -15.279  1.00  0.00    +0.035 A 
ATOM      9  C   UNL     1     -26.500  15.143 -14.854  1.00  0.00    +0.271 A 
ATOM     10  C   UNL     1     -25.749  14.364 -15.742  1.00  0.00    +0.088 A 
ATOM     11 Cl   UNL     1     -26.075  13.227 -11.380  1.00  0.00    -0.082 Cl
BRANCH   9  12
ATOM     12  N   UNL     1     -27.186  16.346 -15.340  1.00  0.00    +0.062 N 
ATOM     13  O   UNL     1     -27.005  17.402 -14.716  1.00  0.00    -0.258 OA
ATOM     14  O   UNL     1     -27.905  16.234 -16.343  1.00  0.00    -0.258 OA
ENDBRANCH   9  12
ENDBRANCH   2   5
BRANCH   3  15
ATOM     15  C   UNL     1     -22.782  10.174 -12.649  1.00  0.00    +0.083 A 
ATOM     16  C   UNL     1     -23.309   9.834 -11.392  1.00  0.00    +0.128 A 
ATOM     17  C   UNL     1     -21.909   9.279 -13.284  1.00  0.00    +0.038 A 
ATOM     18  C   UNL     1     -22.936   8.650 -10.757  1.00  0.00    +0.048 A 
ATOM     19  C   UNL     1     -21.546   8.091 -12.645  1.00  0.00    +0.042 A 
ATOM     20  C   UNL     1     -22.048   7.777 -11.384  1.00  0.00    +0.024 A 
ATOM     21 Cl   UNL     1     -20.470   7.002 -13.429  1.00  0.00    -0.084 Cl
BRANCH  16  22
ATOM     22  O   UNL     1     -24.204  10.621 -10.716  1.00  0.00    -0.507 OA
ATOM     23  H   UNL     1     -23.869  10.744  -9.799  1.00  0.00    +0.293 HD
ENDBRANCH  16  22
ENDBRANCH   3  15
TORSDOF 4
ENDMDL
MODEL 2
REMARK VINA RESULT:    -6.953      4.095      8.244
REMARK INTER + INTRA:          -9.012
REMARK INTER:                  -8.336
REMARK INTRA:                  -0.676
REMARK UNBOUND:                -0.636
REMARK SMILES O=C(Nc1ccc([N+](=O)[O-])cc1Cl)c1cc(Cl)ccc1O
REMARK SMILES IDX 1 1 3 2 2 3 4 5 12 6 11 7 5 8 7 9 6 10 13 11 8 12 9 13 10 14
REMARK SMILES IDX 14 15 20 16 15 17 19 18 16 19 18 20 17 21 21 22
REMARK H PARENT 3 4 21 23
ROOT
ATOM      1  O   UNL     1     -23.223  12.429 -17.422  1.00  0.00    -0.269 OA
ATOM      2  N   UNL     1     -21.741  12.602 -15.636  1.00  0.00    -0.321 N 
ATOM      3  C   UNL     1     -22.865  12.938 -16.364  1.00  0.00    +0.259 C 
ATOM      4  H   UNL     1     -21.468  13.210 -14.871  1.00  0.00    +0.170 HD
ENDROOT
BRANCH   2   5
ATOM      5  C   UNL     1     -20.824  11.552 -15.893  1.00  0.00    +0.060 A 
ATOM      6  C   UNL     1     -21.115  10.272 -15.377  1.00  0.00    +0.071 A 
ATOM      7  C   UNL     1     -20.259   9.189 -15.591  1.00  0.00    +0.108 A 
ATOM      8  C   UNL     1     -19.655  11.720 -16.642  1.00  0.00    +0.035 A 
ATOM      9  C   UNL     1     -19.093   9.382 -16.338  1.00  0.00    +0.271 A 
ATOM     10  C   UNL     1     -18.789  10.642 -16.864  1.00  0.00    +0.088 A 
ATOM     11 Cl   UNL     1     -22.555   9.998 -14.452  1.00  0.00    -0.082 Cl
BRANCH   9  12
ATOM     12  N   UNL     1     -18.184   8.254 -16.572  1.00  0.00    +0.062 N 
ATOM     13  O   UNL     1     -16.976   8.438 -16.369  1.00  0.00    -0.258 OA
ATOM     14  O   UNL     1     -18.679   7.187 -16.960  1.00  0.00    -0.258 OA
ENDBRANCH   9  12
ENDBRANCH   2   5
BRANCH   3  15
ATOM     15  C   UNL     1     -23.681  14.070 -15.835  1.00  0.00    +0.083 A 
ATOM     16  C   UNL     1     -23.563  15.341 -16.421  1.00  0.00    +0.128 A 
ATOM     17  C   UNL     1     -24.585  13.891 -14.777  1.00  0.00    +0.038 A 
ATOM     18  C   UNL     1     -24.294  16.423 -15.933  1.00  0.00    +0.048 A 
ATOM     19  C   UNL     1     -25.319  14.979 -14.299  1.00  0.00    +0.042 A 
ATOM     20  C   UNL     1     -25.173  16.243 -14.866  1.00  0.00    +0.024 A 
ATOM     21 Cl   UNL     1     -26.421  14.751 -12.998  1.00  0.00    -0.084 Cl
BRANCH  16  22
ATOM     22  O   UNL     1     -22.744  15.602 -17.486  1.00  0.00    -0.507 OA
ATOM     23  H   UNL     1     -22.863  16.545 -17.739  1.00  0.00    +0.293 HD
ENDBRANCH  16  22
ENDBRANCH   3  15
TORSDOF 4
ENDMDL
MODEL 3
REMARK VINA RESULT:    -6.791      2.330      2.648
REMARK INTER + INTRA:          -8.817
REMARK INTER:                  -8.112
REMARK INTRA:                  -0.705
REMARK UNBOUND:                -0.636
REMARK SMILES O=C(Nc1ccc([N+](=O)[O-])cc1Cl)c1cc(Cl)ccc1O
REMARK SMILES IDX 1 1 3 2 2 3 4 5 12 6 11 7 5 8 7 9 6 10 13 11 8 12 9 13 10 14
REMARK SMILES IDX 14 15 20 16 15 17 19 18 16 19 18 20 17 21 21 22
REMARK H PARENT 3 4 21 23
ROOT
ATOM      1  O   UNL     1     -26.095  10.416 -13.364  1.00  0.00    -0.269 OA
ATOM      2  N   UNL     1     -24.806  12.353 -13.326  1.00  0.00    -0.321 N 
ATOM      3  C   UNL     1     -25.134  11.064 -12.958  1.00  0.00    +0.259 C 
ATOM      4  H   UNL     1     -24.088  12.834 -12.793  1.00  0.00    +0.170 HD
ENDROOT
BRANCH   2   5
ATOM      5  C   UNL     1     -25.436  13.163 -14.304  1.00  0.00    +0.060 A 
ATOM      6  C   UNL     1     -26.173  14.284 -13.868  1.00  0.00    +0.071 A 
ATOM      7  C   UNL     1     -26.818  15.129 -14.774  1.00  0.00    +0.108 A 
ATOM      8  C   UNL     1     -25.352  12.914 -15.677  1.00  0.00    +0.035 A 
ATOM      9  C   UNL     1     -26.725  14.856 -16.142  1.00  0.00    +0.271 A 
ATOM     10  C   UNL     1     -25.995  13.752 -16.597  1.00  0.00    +0.088 A 
ATOM     11 Cl   UNL     1     -26.302  14.654 -12.179  1.00  0.00    -0.082 Cl
BRANCH   9  12
ATOM     12  N   UNL     1     -27.397  15.735 -17.106  1.00  0.00    +0.062 N 
ATOM     13  O   UNL     1     -26.919  15.806 -18.247  1.00  0.00    -0.258 OA
ATOM     14  O   UNL     1     -28.399  16.352 -16.722  1.00  0.00    -0.258 OA
ENDBRANCH   9  12
ENDBRANCH   2   5
BRANCH   3  15
ATOM     15  C   UNL     1     -24.265  10.430 -11.924  1.00  0.00    +0.083 A 
ATOM     16  C   UNL     1     -23.867   9.092 -12.081  1.00  0.00    +0.128 A 
ATOM     17  C   UNL     1     -23.813  11.147 -10.807  1.00  0.00    +0.038 A 
ATOM     18  C   UNL     1     -23.075   8.465 -11.121  1.00  0.00    +0.048 A 
ATOM     19  C   UNL     1     -23.012  10.513  -9.853  1.00  0.00    +0.042 A 
ATOM     20  C   UNL     1     -22.649   9.177 -10.000  1.00  0.00    +0.024 A 
ATOM     21 Cl   UNL     1     -22.467  11.398  -8.482  1.00  0.00    -0.084 Cl
BRANCH  16  22
ATOM     22  O   UNL     1     -24.219   8.327 -13.161  1.00  0.00    -0.507 OA
ATOM     23  H   UNL     1     -23.559   7.603 -13.249  1.00  0.00    +0.293 HD
ENDBRANCH  16  22
ENDBRANCH   3  15
TORSDOF 4
ENDMDL
MODEL 4
REMARK VINA RESULT:    -6.780      4.556      8.553
REMARK INTER + INTRA:          -8.803
REMARK INTER:                  -8.062
REMARK INTRA:                  -0.741
REMARK UNBOUND:                -0.636
REMARK SMILES O=C(Nc1ccc([N+](=O)[O-])cc1Cl)c1cc(Cl)ccc1O
REMARK SMILES IDX 1 1 3 2 2 3 4 5 12 6 11 7 5 8 7 9 6 10 13 11 8 12 9 13 10 14
REMARK SMILES IDX 14 15 20 16 15 17 19 18 16 19 18 20 17 21 21 22
REMARK H PARENT 3 4 21 23
ROOT
ATOM      1  O   UNL     1     -23.708  12.199 -16.894  1.00  0.00    -0.269 OA
ATOM      2  N   UNL     1     -21.705  12.968 -15.994  1.00  0.00    -0.321 N 
ATOM      3  C   UNL     1     -23.051  13.041 -16.288  1.00  0.00    +0.259 C 
ATOM      4  H   UNL     1     -21.247  13.802 -15.639  1.00  0.00    +0.170 HD
ENDROOT
BRANCH   2   5
ATOM      5  C   UNL     1     -20.822  11.887 -16.235  1.00  0.00    +0.060 A 
ATOM      6  C   UNL     1     -19.978  11.954 -17.364  1.00  0.00    +0.071 A 
ATOM      7  C   UNL     1     -19.080  10.926 -17.664  1.00  0.00    +0.108 A 
ATOM      8  C   UNL     1     -20.737  10.765 -15.405  1.00  0.00    +0.035 A 
ATOM      9  C   UNL     1     -19.018   9.812 -16.822  1.00  0.00    +0.271 A 
ATOM     10  C   UNL     1     -19.841   9.727 -15.695  1.00  0.00    +0.088 A 
ATOM     11 Cl   UNL     1     -20.027  13.324 -18.424  1.00  0.00    -0.082 Cl
BRANCH   9  12
ATOM     12  N   UNL     1     -18.079   8.725 -17.124  1.00  0.00    +0.062 N 
ATOM     13  O   UNL     1     -18.399   7.919 -18.010  1.00  0.00    -0.258 OA
ATOM     14  O   UNL     1     -17.024   8.678 -16.476  1.00  0.00    -0.258 OA
ENDBRANCH   9  12
ENDBRANCH   2   5
BRANCH   3  15
ATOM     15  C   UNL     1     -23.750  14.294 -15.878  1.00  0.00    +0.083 A 
ATOM     16  C   UNL     1     -23.266  15.534 -16.325  1.00  0.00    +0.128 A 
ATOM     17  C   UNL     1     -24.899  14.263 -15.073  1.00  0.00    +0.038 A 
ATOM     18  C   UNL     1     -23.882  16.724 -15.939  1.00  0.00    +0.048 A 
ATOM     19  C   UNL     1     -25.516  15.459 -14.698  1.00  0.00    +0.042 A 
ATOM     20  C   UNL     1     -25.010  16.687 -15.119  1.00  0.00    +0.024 A 
ATOM     21 Cl   UNL     1     -26.921  15.413 -13.706  1.00  0.00    -0.084 Cl
BRANCH  16  22
ATOM     22  O   UNL     1     -22.181  15.661 -17.150  1.00  0.00    -0.507 OA
ATOM     23  H   UNL     1     -22.498  15.611 -18.081  1.00  0.00    +0.293 HD
ENDBRANCH  16  22
ENDBRANCH   3  15
TORSDOF 4
ENDMDL
MODEL 5
REMARK VINA RESULT:    -6.747      2.125      2.579
REMARK INTER + INTRA:          -8.764
REMARK INTER:                  -8.137
REMARK INTRA:                  -0.626
REMARK UNBOUND:                -0.636
REMARK SMILES O=C(Nc1ccc([N+](=O)[O-])cc1Cl)c1cc(Cl)ccc1O
REMARK SMILES IDX 1 1 3 2 2 3 4 5 12 6 11 7 5 8 7 9 6 10 13 11 8 12 9 13 10 14
REMARK SMILES IDX 14 15 20 16 15 17 19 18 16 19 18 20 17 21 21 22
REMARK H PARENT 3 4 21 23
ROOT
ATOM      1  O   UNL     1     -25.818   9.332 -13.274  1.00  0.00    -0.269 OA
ATOM      2  N   UNL     1     -24.020  10.779 -12.974  1.00  0.00    -0.321 N 
ATOM      3  C   UNL     1     -24.636   9.544 -13.022  1.00  0.00    +0.259 C 
ATOM      4  H   UNL     1     -23.082  10.831 -12.590  1.00  0.00    +0.170 HD
ENDROOT
BRANCH   2   5
ATOM      5  C   UNL     1     -24.581  12.040 -13.292  1.00  0.00    +0.060 A 
ATOM      6  C   UNL     1     -24.094  12.719 -14.429  1.00  0.00    +0.071 A 
ATOM      7  C   UNL     1     -24.601  13.965 -14.806  1.00  0.00    +0.108 A 
ATOM      8  C   UNL     1     -25.601  12.638 -12.545  1.00  0.00    +0.035 A 
ATOM      9  C   UNL     1     -25.616  14.545 -14.040  1.00  0.00    +0.271 A 
ATOM     10  C   UNL     1     -26.118  13.887 -12.912  1.00  0.00    +0.088 A 
ATOM     11 Cl   UNL     1     -22.840  12.024 -15.404  1.00  0.00    -0.082 Cl
BRANCH   9  12
ATOM     12  N   UNL     1     -26.160  15.854 -14.423  1.00  0.00    +0.062 N 
ATOM     13  O   UNL     1     -25.356  16.727 -14.779  1.00  0.00    -0.258 OA
ATOM     14  O   UNL     1     -27.388  16.006 -14.369  1.00  0.00    -0.258 OA
ENDBRANCH   9  12
ENDBRANCH   2   5
BRANCH   3  15
ATOM     15  C   UNL     1     -23.785   8.368 -12.674  1.00  0.00    +0.083 A 
ATOM     16  C   UNL     1     -22.927   8.439 -11.564  1.00  0.00    +0.128 A 
ATOM     17  C   UNL     1     -23.839   7.179 -13.416  1.00  0.00    +0.038 A 
ATOM     18  C   UNL     1     -22.103   7.366 -11.228  1.00  0.00    +0.048 A 
ATOM     19  C   UNL     1     -23.016   6.105 -13.067  1.00  0.00    +0.042 A 
ATOM     20  C   UNL     1     -22.145   6.196 -11.985  1.00  0.00    +0.024 A 
ATOM     21 Cl   UNL     1     -23.084   4.652 -13.986  1.00  0.00    -0.084 Cl
BRANCH  16  22
ATOM     22  O   UNL     1     -22.841   9.539 -10.753  1.00  0.00    -0.507 OA
ATOM     23  H   UNL     1     -23.750   9.891 -10.619  1.00  0.00    +0.293 HD
ENDBRANCH  16  22
ENDBRANCH   3  15
TORSDOF 4
ENDMDL
MODEL 6
REMARK VINA RESULT:    -6.693      4.101      7.514
REMARK INTER + INTRA:          -8.698
REMARK INTER:                  -8.119
REMARK INTRA:                  -0.579
REMARK UNBOUND:                -0.636
REMARK SMILES O=C(Nc1ccc([N+](=O)[O-])cc1Cl)c1cc(Cl)ccc1O
REMARK SMILES IDX 1 1 3 2 2 3 4 5 12 6 11 7 5 8 7 9 6 10 13 11 8 12 9 13 10 14
REMARK SMILES IDX 14 15 20 16 15 17 19 18 16 19 18 20 17 21 21 22
REMARK H PARENT 3 4 21 23
ROOT
ATOM      1  O   UNL     1     -24.280  11.058 -15.354  1.00  0.00    -0.269 OA
ATOM      2  N   UNL     1     -22.496  12.516 -15.032  1.00  0.00    -0.321 N 
ATOM      3  C   UNL     1     -23.807  12.102 -14.913  1.00  0.00    +0.259 C 
ATOM      4  H   UNL     1     -22.272  13.472 -14.773  1.00  0.00    +0.170 HD
ENDROOT
BRANCH   2   5
ATOM      5  C   UNL     1     -21.408  11.802 -15.591  1.00  0.00    +0.060 A 
ATOM      6  C   UNL     1     -20.676  12.410 -16.633  1.00  0.00    +0.071 A 
ATOM      7  C   UNL     1     -19.589  11.767 -17.231  1.00  0.00    +0.108 A 
ATOM      8  C   UNL     1     -21.016  10.533 -15.154  1.00  0.00    +0.035 A 
ATOM      9  C   UNL     1     -19.220  10.496 -16.780  1.00  0.00    +0.271 A 
ATOM     10  C   UNL     1     -19.928   9.878 -15.744  1.00  0.00    +0.088 A 
ATOM     11 Cl   UNL     1     -21.104  13.988 -17.210  1.00  0.00    -0.082 Cl
BRANCH   9  12
ATOM     12  N   UNL     1     -18.080   9.809 -17.398  1.00  0.00    +0.062 N 
ATOM     13  O   UNL     1     -17.134   9.492 -16.663  1.00  0.00    -0.258 OA
ATOM     14  O   UNL     1     -18.132   9.587 -18.616  1.00  0.00    -0.258 OA
ENDBRANCH   9  12
ENDBRANCH   2   5
BRANCH   3  15
ATOM     15  C   UNL     1     -24.741  13.048 -14.235  1.00  0.00    +0.083 A 
ATOM     16  C   UNL     1     -25.267  12.717 -12.975  1.00  0.00    +0.128 A 
ATOM     17  C   UNL     1     -25.090  14.276 -14.816  1.00  0.00    +0.038 A 
ATOM     18  C   UNL     1     -26.160  13.569 -12.328  1.00  0.00    +0.048 A 
ATOM     19  C   UNL     1     -25.979  15.128 -14.156  1.00  0.00    +0.042 A 
ATOM     20  C   UNL     1     -26.521  14.777 -12.922  1.00  0.00    +0.024 A 
ATOM     21 Cl   UNL     1     -26.407  16.630 -14.878  1.00  0.00    -0.084 Cl
BRANCH  16  22
ATOM     22  O   UNL     1     -24.948  11.563 -12.310  1.00  0.00    -0.507 OA
ATOM     23  H   UNL     1     -25.146  10.804 -12.904  1.00  0.00    +0.293 HD
ENDBRANCH  16  22
ENDBRANCH   3  15
TORSDOF 4
ENDMDL
MODEL 7
REMARK VINA RESULT:    -6.584      3.213      7.641
REMARK INTER + INTRA:          -8.568
REMARK INTER:                  -7.967
REMARK INTRA:                  -0.601
REMARK UNBOUND:                -0.636
REMARK SMILES O=C(Nc1ccc([N+](=O)[O-])cc1Cl)c1cc(Cl)ccc1O
REMARK SMILES IDX 1 1 3 2 2 3 4 5 12 6 11 7 5 8 7 9 6 10 13 11 8 12 9 13 10 14
REMARK SMILES IDX 14 15 20 16 15 17 19 18 16 19 18 20 17 21 21 22
REMARK H PARENT 3 4 21 23
ROOT
ATOM      1  O   UNL     1     -23.985  11.267 -15.656  1.00  0.00    -0.269 OA
ATOM      2  N   UNL     1     -23.942  11.147 -13.333  1.00  0.00    -0.321 N 
ATOM      3  C   UNL     1     -24.196  11.750 -14.548  1.00  0.00    +0.259 C 
ATOM      4  H   UNL     1     -24.004  11.716 -12.494  1.00  0.00    +0.170 HD
ENDROOT
BRANCH   2   5
ATOM      5  C   UNL     1     -23.481   9.827 -13.100  1.00  0.00    +0.060 A 
ATOM      6  C   UNL     1     -22.266   9.659 -12.403  1.00  0.00    +0.071 A 
ATOM      7  C   UNL     1     -21.750   8.389 -12.134  1.00  0.00    +0.108 A 
ATOM      8  C   UNL     1     -24.176   8.686 -13.513  1.00  0.00    +0.035 A 
ATOM      9  C   UNL     1     -22.460   7.263 -12.563  1.00  0.00    +0.271 A 
ATOM     10  C   UNL     1     -23.670   7.407 -13.250  1.00  0.00    +0.088 A 
ATOM     11 Cl   UNL     1     -21.365  11.034 -11.853  1.00  0.00    -0.082 Cl
BRANCH   9  12
ATOM     12  N   UNL     1     -21.932   5.922 -12.288  1.00  0.00    +0.062 N 
ATOM     13  O   UNL     1     -20.769   5.679 -12.640  1.00  0.00    -0.258 OA
ATOM     14  O   UNL     1     -22.679   5.114 -11.720  1.00  0.00    -0.258 OA
ENDBRANCH   9  12
ENDBRANCH   2   5
BRANCH   3  15
ATOM     15  C   UNL     1     -24.722  13.146 -14.495  1.00  0.00    +0.083 A 
ATOM     16  C   UNL     1     -25.741  13.467 -13.583  1.00  0.00    +0.128 A 
ATOM     17  C   UNL     1     -24.206  14.156 -15.321  1.00  0.00    +0.038 A 
ATOM     18  C   UNL     1     -26.270  14.755 -13.527  1.00  0.00    +0.048 A 
ATOM     19  C   UNL     1     -24.736  15.447 -15.252  1.00  0.00    +0.042 A 
ATOM     20  C   UNL     1     -25.769  15.748 -14.367  1.00  0.00    +0.024 A 
ATOM     21 Cl   UNL     1     -24.101  16.678 -16.272  1.00  0.00    -0.084 Cl
BRANCH  16  22
ATOM     22  O   UNL     1     -26.274  12.560 -12.706  1.00  0.00    -0.507 OA
ATOM     23  H   UNL     1     -26.509  11.749 -13.211  1.00  0.00    +0.293 HD
ENDBRANCH  16  22
ENDBRANCH   3  15
TORSDOF 4
ENDMDL
MODEL 8
REMARK VINA RESULT:    -6.551      4.564      5.392
REMARK INTER + INTRA:          -8.528
REMARK INTER:                  -7.892
REMARK INTRA:                  -0.636
REMARK UNBOUND:                -0.636
REMARK SMILES O=C(Nc1ccc([N+](=O)[O-])cc1Cl)c1cc(Cl)ccc1O
REMARK SMILES IDX 1 1 3 2 2 3 4 5 12 6 11 7 5 8 7 9 6 10 13 11 8 12 9 13 10 14
REMARK SMILES IDX 14 15 20 16 15 17 19 18 16 19 18 20 17 21 21 22
REMARK H PARENT 3 4 21 23
ROOT
ATOM      1  O   UNL     1     -21.952  11.231 -18.110  1.00  0.00    -0.269 OA
ATOM      2  N   UNL     1     -21.011  12.885 -16.770  1.00  0.00    -0.321 N 
ATOM      3  C   UNL     1     -20.986  11.754 -17.561  1.00  0.00    +0.259 C 
ATOM      4  H   UNL     1     -20.176  13.116 -16.240  1.00  0.00    +0.170 HD
ENDROOT
BRANCH   2   5
ATOM      5  C   UNL     1     -22.115  13.731 -16.501  1.00  0.00    +0.060 A 
ATOM      6  C   UNL     1     -23.071  13.300 -15.557  1.00  0.00    +0.071 A 
ATOM      7  C   UNL     1     -24.184  14.081 -15.238  1.00  0.00    +0.108 A 
ATOM      8  C   UNL     1     -22.298  14.974 -17.114  1.00  0.00    +0.035 A 
ATOM      9  C   UNL     1     -24.348  15.318 -15.869  1.00  0.00    +0.271 A 
ATOM     10  C   UNL     1     -23.410  15.768 -16.804  1.00  0.00    +0.088 A 
ATOM     11 Cl   UNL     1     -22.893  11.774 -14.753  1.00  0.00    -0.082 Cl
BRANCH   9  12
ATOM     12  N   UNL     1     -25.512  16.151 -15.544  1.00  0.00    +0.062 N 
ATOM     13  O   UNL     1     -26.610  15.808 -16.006  1.00  0.00    -0.258 OA
ATOM     14  O   UNL     1     -25.327  17.146 -14.830  1.00  0.00    -0.258 OA
ENDBRANCH   9  12
ENDBRANCH   2   5
BRANCH   3  15
ATOM     15  C   UNL     1     -19.664  11.077 -17.706  1.00  0.00    +0.083 A 
ATOM     16  C   UNL     1     -18.862  10.877 -16.570  1.00  0.00    +0.128 A 
ATOM     17  C   UNL     1     -19.210  10.612 -18.949  1.00  0.00    +0.038 A 
ATOM     18  C   UNL     1     -17.611  10.270 -16.677  1.00  0.00    +0.048 A 
ATOM     19  C   UNL     1     -17.960   9.997 -19.046  1.00  0.00    +0.042 A 
ATOM     20  C   UNL     1     -17.156   9.832 -17.920  1.00  0.00    +0.024 A 
ATOM     21 Cl   UNL     1     -17.408   9.435 -20.575  1.00  0.00    -0.084 Cl
BRANCH  16  22
ATOM     22  O   UNL     1     -19.240  11.254 -15.309  1.00  0.00    -0.507 OA
ATOM     23  H   UNL     1     -19.536  10.449 -14.827  1.00  0.00    +0.293 HD
ENDBRANCH  16  22
ENDBRANCH   3  15
TORSDOF 4
ENDMDL
MODEL 9
REMARK VINA RESULT:    -6.409      4.167      5.318
REMARK INTER + INTRA:          -8.357
REMARK INTER:                  -7.645
REMARK INTRA:                  -0.712
REMARK UNBOUND:                -0.636
REMARK SMILES O=C(Nc1ccc([N+](=O)[O-])cc1Cl)c1cc(Cl)ccc1O
REMARK SMILES IDX 1 1 3 2 2 3 4 5 12 6 11 7 5 8 7 9 6 10 13 11 8 12 9 13 10 14
REMARK SMILES IDX 14 15 20 16 15 17 19 18 16 19 18 20 17 21 21 22
REMARK H PARENT 3 4 21 23
ROOT
ATOM      1  O   UNL     1     -23.542  10.536 -15.213  1.00  0.00    -0.269 OA
ATOM      2  N   UNL     1     -21.657  11.772 -14.634  1.00  0.00    -0.321 N 
ATOM      3  C   UNL     1     -22.651  10.838 -14.423  1.00  0.00    +0.259 C 
ATOM      4  H   UNL     1     -21.086  12.049 -13.841  1.00  0.00    +0.170 HD
ENDROOT
BRANCH   2   5
ATOM      5  C   UNL     1     -21.392  12.505 -15.818  1.00  0.00    +0.060 A 
ATOM      6  C   UNL     1     -20.401  12.018 -16.695  1.00  0.00    +0.071 A 
ATOM      7  C   UNL     1     -20.087  12.685 -17.882  1.00  0.00    +0.108 A 
ATOM      8  C   UNL     1     -22.073  13.676 -16.165  1.00  0.00    +0.035 A 
ATOM      9  C   UNL     1     -20.777  13.858 -18.204  1.00  0.00    +0.271 A 
ATOM     10  C   UNL     1     -21.768  14.355 -17.351  1.00  0.00    +0.088 A 
ATOM     11 Cl   UNL     1     -19.532  10.563 -16.328  1.00  0.00    -0.082 Cl
BRANCH   9  12
ATOM     12  N   UNL     1     -20.459  14.569 -19.448  1.00  0.00    +0.062 N 
ATOM     13  O   UNL     1     -19.698  15.544 -19.373  1.00  0.00    -0.258 OA
ATOM     14  O   UNL     1     -20.971  14.154 -20.496  1.00  0.00    -0.258 OA
ENDBRANCH   9  12
ENDBRANCH   2   5
BRANCH   3  15
ATOM     15  C   UNL     1     -22.669  10.183 -13.083  1.00  0.00    +0.083 A 
ATOM     16  C   UNL     1     -22.743   8.782 -12.999  1.00  0.00    +0.128 A 
ATOM     17  C   UNL     1     -22.587  10.931 -11.899  1.00  0.00    +0.038 A 
ATOM     18  C   UNL     1     -22.786   8.142 -11.761  1.00  0.00    +0.048 A 
ATOM     19  C   UNL     1     -22.622  10.281 -10.663  1.00  0.00    +0.042 A 
ATOM     20  C   UNL     1     -22.729   8.895 -10.588  1.00  0.00    +0.024 A 
ATOM     21 Cl   UNL     1     -22.528  11.207  -9.216  1.00  0.00    -0.084 Cl
BRANCH  16  22
ATOM     22  O   UNL     1     -22.779   7.966 -14.098  1.00  0.00    -0.507 OA
ATOM     23  H   UNL     1     -22.509   7.063 -13.815  1.00  0.00    +0.293 HD
ENDBRANCH  16  22
ENDBRANCH   3  15
TORSDOF 4
ENDMDL
