MODEL 1
REMARK VINA RESULT:    -8.981      0.000      0.000
REMARK INTER + INTRA:         -11.531
REMARK INTER:                 -10.819
REMARK INTRA:                  -0.712
REMARK UNBOUND:                -0.712
REMARK SMILES O=C(Nc1ccc([N+](=O)[O-])cc1Cl)c1cc(Cl)ccc1O
REMARK SMILES IDX 1 1 3 2 2 3 4 5 12 6 11 7 5 8 7 9 6 10 13 11 8 12 9 13 10 14
REMARK SMILES IDX 14 15 20 16 15 17 19 18 16 19 18 20 17 21 21 22
REMARK H PARENT 3 4 21 23
ROOT
ATOM      1  O   UNL     1      22.900  73.286  51.303  1.00  0.00    -0.269 OA
ATOM      2  N   UNL     1      22.602  74.878  49.632  1.00  0.00    -0.321 N 
ATOM      3  C   UNL     1      22.285  74.224  50.806  1.00  0.00    +0.259 C 
ATOM      4  H   UNL     1      21.920  75.523  49.245  1.00  0.00    +0.170 HD
ENDROOT
BRANCH   2   5
ATOM      5  C   UNL     1      23.738  74.679  48.809  1.00  0.00    +0.060 A 
ATOM      6  C   UNL     1      23.642  73.746  47.755  1.00  0.00    +0.071 A 
ATOM      7  C   UNL     1      24.720  73.499  46.901  1.00  0.00    +0.108 A 
ATOM      8  C   UNL     1      24.941  75.370  48.980  1.00  0.00    +0.035 A 
ATOM      9  C   UNL     1      25.915  74.197  47.096  1.00  0.00    +0.271 A 
ATOM     10  C   UNL     1      26.029  75.132  48.131  1.00  0.00    +0.088 A 
ATOM     11 Cl   UNL     1      22.173  72.868  47.483  1.00  0.00    -0.082 Cl
BRANCH   9  12
ATOM     12  N   UNL     1      27.055  73.950  46.207  1.00  0.00    +0.062 N 
ATOM     13  O   UNL     1      27.301  74.799  45.339  1.00  0.00    -0.258 OA
ATOM     14  O   UNL     1      27.703  72.907  46.377  1.00  0.00    -0.258 OA
ENDBRANCH   9  12
ENDBRANCH   2   5
BRANCH   3  15
ATOM     15  C   UNL     1      21.039  74.672  51.495  1.00  0.00    +0.083 A 
ATOM     16  C   UNL     1      20.066  73.723  51.850  1.00  0.00    +0.128 A 
ATOM     17  C   UNL     1      20.825  76.019  51.823  1.00  0.00    +0.038 A 
ATOM     18  C   UNL     1      18.881  74.112  52.473  1.00  0.00    +0.048 A 
ATOM     19  C   UNL     1      19.639  76.400  52.455  1.00  0.00    +0.042 A 
ATOM     20  C   UNL     1      18.665  75.457  52.773  1.00  0.00    +0.024 A 
ATOM     21 Cl   UNL     1      19.381  78.055  52.847  1.00  0.00    -0.084 Cl
BRANCH  16  22
ATOM     22  O   UNL     1      20.207  72.381  51.615  1.00  0.00    -0.507 OA
ATOM     23  H   UNL     1      20.574  71.966  52.428  1.00  0.00    +0.293 HD
ENDBRANCH  16  22
ENDBRANCH   3  15
TORSDOF 4
ENDMDL
MODEL 2
REMARK VINA RESULT:    -8.278      4.753      5.597
REMARK INTER + INTRA:         -10.683
REMARK INTER:                 -10.067
REMARK INTRA:                  -0.617
REMARK UNBOUND:                -0.712
REMARK SMILES O=C(Nc1ccc([N+](=O)[O-])cc1Cl)c1cc(Cl)ccc1O
REMARK SMILES IDX 1 1 3 2 2 3 4 5 12 6 11 7 5 8 7 9 6 10 13 11 8 12 9 13 10 14
REMARK SMILES IDX 14 15 20 16 15 17 19 18 16 19 18 20 17 21 21 22
REMARK H PARENT 3 4 21 23
ROOT
ATOM      1  O   UNL     1      21.791  72.409  49.223  1.00  0.00    -0.269 OA
ATOM      2  N   UNL     1      19.553  72.363  48.585  1.00  0.00    -0.321 N 
ATOM      3  C   UNL     1      20.645  72.846  49.278  1.00  0.00    +0.259 C 
ATOM      4  H   UNL     1      18.633  72.702  48.846  1.00  0.00    +0.170 HD
ENDROOT
BRANCH   2   5
ATOM      5  C   UNL     1      19.532  71.340  47.604  1.00  0.00    +0.060 A 
ATOM      6  C   UNL     1      19.803  71.694  46.266  1.00  0.00    +0.071 A 
ATOM      7  C   UNL     1      19.803  70.740  45.245  1.00  0.00    +0.108 A 
ATOM      8  C   UNL     1      19.269  69.999  47.898  1.00  0.00    +0.035 A 
ATOM      9  C   UNL     1      19.531  69.406  45.563  1.00  0.00    +0.271 A 
ATOM     10  C   UNL     1      19.265  69.032  46.885  1.00  0.00    +0.088 A 
ATOM     11 Cl   UNL     1      20.150  73.339  45.839  1.00  0.00    -0.082 Cl
BRANCH   9  12
ATOM     12  N   UNL     1      19.528  68.392  44.503  1.00  0.00    +0.062 N 
ATOM     13  O   UNL     1      20.551  67.708  44.360  1.00  0.00    -0.258 OA
ATOM     14  O   UNL     1      18.503  68.281  43.815  1.00  0.00    -0.258 OA
ENDBRANCH   9  12
ENDBRANCH   2   5
BRANCH   3  15
ATOM     15  C   UNL     1      20.382  73.967  50.227  1.00  0.00    +0.083 A 
ATOM     16  C   UNL     1      20.144  73.685  51.582  1.00  0.00    +0.128 A 
ATOM     17  C   UNL     1      20.391  75.304  49.802  1.00  0.00    +0.038 A 
ATOM     18  C   UNL     1      19.871  74.709  52.488  1.00  0.00    +0.048 A 
ATOM     19  C   UNL     1      20.125  76.325  50.718  1.00  0.00    +0.042 A 
ATOM     20  C   UNL     1      19.857  76.034  52.054  1.00  0.00    +0.024 A 
ATOM     21 Cl   UNL     1      20.131  77.962  50.188  1.00  0.00    -0.084 Cl
BRANCH  16  22
ATOM     22  O   UNL     1      20.162  72.417  52.098  1.00  0.00    -0.507 OA
ATOM     23  H   UNL     1      19.234  72.154  52.293  1.00  0.00    +0.293 HD
ENDBRANCH  16  22
ENDBRANCH   3  15
TORSDOF 4
ENDMDL
MODEL 3
REMARK VINA RESULT:    -8.189      1.726      2.107
REMARK INTER + INTRA:         -10.576
REMARK INTER:                  -9.979
REMARK INTRA:                  -0.597
REMARK UNBOUND:                -0.712
REMARK SMILES O=C(Nc1ccc([N+](=O)[O-])cc1Cl)c1cc(Cl)ccc1O
REMARK SMILES IDX 1 1 3 2 2 3 4 5 12 6 11 7 5 8 7 9 6 10 13 11 8 12 9 13 10 14
REMARK SMILES IDX 14 15 20 16 15 17 19 18 16 19 18 20 17 21 21 22
REMARK H PARENT 3 4 21 23
ROOT
ATOM      1  O   UNL     1      21.565  75.587  48.805  1.00  0.00    -0.269 OA
ATOM      2  N   UNL     1      23.476  74.720  49.811  1.00  0.00    -0.321 N 
ATOM      3  C   UNL     1      22.161  75.141  49.781  1.00  0.00    +0.259 C 
ATOM      4  H   UNL     1      23.896  74.532  50.716  1.00  0.00    +0.170 HD
ENDROOT
BRANCH   2   5
ATOM      5  C   UNL     1      24.380  74.622  48.725  1.00  0.00    +0.060 A 
ATOM      6  C   UNL     1      25.585  75.354  48.792  1.00  0.00    +0.071 A 
ATOM      7  C   UNL     1      26.525  75.304  47.760  1.00  0.00    +0.108 A 
ATOM      8  C   UNL     1      24.145  73.827  47.599  1.00  0.00    +0.035 A 
ATOM      9  C   UNL     1      26.265  74.507  46.642  1.00  0.00    +0.271 A 
ATOM     10  C   UNL     1      25.080  73.769  46.557  1.00  0.00    +0.088 A 
ATOM     11 Cl   UNL     1      25.941  76.346  50.168  1.00  0.00    -0.082 Cl
BRANCH   9  12
ATOM     12  N   UNL     1      27.244  74.444  45.550  1.00  0.00    +0.062 N 
ATOM     13  O   UNL     1      27.473  75.489  44.923  1.00  0.00    -0.258 OA
ATOM     14  O   UNL     1      27.781  73.352  45.321  1.00  0.00    -0.258 OA
ENDBRANCH   9  12
ENDBRANCH   2   5
BRANCH   3  15
ATOM     15  C   UNL     1      21.424  75.099  51.077  1.00  0.00    +0.083 A 
ATOM     16  C   UNL     1      21.522  73.960  51.892  1.00  0.00    +0.128 A 
ATOM     17  C   UNL     1      20.651  76.185  51.517  1.00  0.00    +0.038 A 
ATOM     18  C   UNL     1      20.826  73.881  53.097  1.00  0.00    +0.048 A 
ATOM     19  C   UNL     1      19.963  76.101  52.730  1.00  0.00    +0.042 A 
ATOM     20  C   UNL     1      20.040  74.954  53.516  1.00  0.00    +0.024 A 
ATOM     21 Cl   UNL     1      19.013  77.434  53.258  1.00  0.00    -0.084 Cl
BRANCH  16  22
ATOM     22  O   UNL     1      22.289  72.872  51.570  1.00  0.00    -0.507 OA
ATOM     23  H   UNL     1      23.077  72.869  52.160  1.00  0.00    +0.293 HD
ENDBRANCH  16  22
ENDBRANCH   3  15
TORSDOF 4
ENDMDL
MODEL 4
REMARK VINA RESULT:    -8.176      4.712      6.126
REMARK INTER + INTRA:         -10.561
REMARK INTER:                 -10.315
REMARK INTRA:                  -0.246
REMARK UNBOUND:                -0.712
REMARK SMILES O=C(Nc1ccc([N+](=O)[O-])cc1Cl)c1cc(Cl)ccc1O
REMARK SMILES IDX 1 1 3 2 2 3 4 5 12 6 11 7 5 8 7 9 6 10 13 11 8 12 9 13 10 14
REMARK SMILES IDX 14 15 20 16 15 17 19 18 16 19 18 20 17 21 21 22
REMARK H PARENT 3 4 21 23
ROOT
ATOM      1  O   UNL     1      21.321  71.128  45.921  1.00  0.00    -0.269 OA
ATOM      2  N   UNL     1      20.730  72.081  47.960  1.00  0.00    -0.321 N 
ATOM      3  C   UNL     1      20.585  71.209  46.900  1.00  0.00    +0.259 C 
ATOM      4  H   UNL     1      19.963  72.163  48.620  1.00  0.00    +0.170 HD
ENDROOT
BRANCH   2   5
ATOM      5  C   UNL     1      21.791  72.990  48.196  1.00  0.00    +0.060 A 
ATOM      6  C   UNL     1      21.949  73.506  49.499  1.00  0.00    +0.071 A 
ATOM      7  C   UNL     1      22.974  74.405  49.807  1.00  0.00    +0.108 A 
ATOM      8  C   UNL     1      22.695  73.388  47.207  1.00  0.00    +0.035 A 
ATOM      9  C   UNL     1      23.862  74.793  48.800  1.00  0.00    +0.271 A 
ATOM     10  C   UNL     1      23.727  74.288  47.502  1.00  0.00    +0.088 A 
ATOM     11 Cl   UNL     1      20.869  73.040  50.772  1.00  0.00    -0.082 Cl
BRANCH   9  12
ATOM     12  N   UNL     1      24.944  75.735  49.108  1.00  0.00    +0.062 N 
ATOM     13  O   UNL     1      24.772  76.517  50.054  1.00  0.00    -0.258 OA
ATOM     14  O   UNL     1      25.962  75.693  48.404  1.00  0.00    -0.258 OA
ENDBRANCH   9  12
ENDBRANCH   2   5
BRANCH   3  15
ATOM     15  C   UNL     1      19.381  70.327  46.930  1.00  0.00    +0.083 A 
ATOM     16  C   UNL     1      18.131  70.875  47.261  1.00  0.00    +0.128 A 
ATOM     17  C   UNL     1      19.462  68.964  46.610  1.00  0.00    +0.038 A 
ATOM     18  C   UNL     1      16.992  70.072  47.321  1.00  0.00    +0.048 A 
ATOM     19  C   UNL     1      18.315  68.168  46.664  1.00  0.00    +0.042 A 
ATOM     20  C   UNL     1      17.085  68.713  47.025  1.00  0.00    +0.024 A 
ATOM     21 Cl   UNL     1      18.425  66.496  46.276  1.00  0.00    -0.084 Cl
BRANCH  16  22
ATOM     22  O   UNL     1      17.945  72.202  47.542  1.00  0.00    -0.507 OA
ATOM     23  H   UNL     1      16.985  72.348  47.705  1.00  0.00    +0.293 HD
ENDBRANCH  16  22
ENDBRANCH   3  15
TORSDOF 4
ENDMDL
MODEL 5
REMARK VINA RESULT:    -7.996      2.713      7.643
REMARK INTER + INTRA:         -10.344
REMARK INTER:                  -9.646
REMARK INTRA:                  -0.698
REMARK UNBOUND:                -0.712
REMARK SMILES O=C(Nc1ccc([N+](=O)[O-])cc1Cl)c1cc(Cl)ccc1O
REMARK SMILES IDX 1 1 3 2 2 3 4 5 12 6 11 7 5 8 7 9 6 10 13 11 8 12 9 13 10 14
REMARK SMILES IDX 14 15 20 16 15 17 19 18 16 19 18 20 17 21 21 22
REMARK H PARENT 3 4 21 23
ROOT
ATOM      1  O   UNL     1      24.747  76.140  49.563  1.00  0.00    -0.269 OA
ATOM      2  N   UNL     1      22.820  75.296  48.568  1.00  0.00    -0.321 N 
ATOM      3  C   UNL     1      24.170  75.578  48.637  1.00  0.00    +0.259 C 
ATOM      4  H   UNL     1      22.442  74.981  47.679  1.00  0.00    +0.170 HD
ENDROOT
BRANCH   2   5
ATOM      5  C   UNL     1      21.839  75.503  49.569  1.00  0.00    +0.060 A 
ATOM      6  C   UNL     1      21.586  74.456  50.481  1.00  0.00    +0.071 A 
ATOM      7  C   UNL     1      20.635  74.588  51.495  1.00  0.00    +0.108 A 
ATOM      8  C   UNL     1      21.120  76.694  49.705  1.00  0.00    +0.035 A 
ATOM      9  C   UNL     1      19.924  75.787  51.608  1.00  0.00    +0.271 A 
ATOM     10  C   UNL     1      20.163  76.840  50.718  1.00  0.00    +0.088 A 
ATOM     11 Cl   UNL     1      22.455  72.960  50.372  1.00  0.00    -0.082 Cl
BRANCH   9  12
ATOM     12  N   UNL     1      18.923  75.942  52.669  1.00  0.00    +0.062 N 
ATOM     13  O   UNL     1      19.087  76.861  53.484  1.00  0.00    -0.258 OA
ATOM     14  O   UNL     1      17.975  75.144  52.688  1.00  0.00    -0.258 OA
ENDBRANCH   9  12
ENDBRANCH   2   5
BRANCH   3  15
ATOM     15  C   UNL     1      24.983  75.212  47.441  1.00  0.00    +0.083 A 
ATOM     16  C   UNL     1      26.271  74.679  47.617  1.00  0.00    +0.128 A 
ATOM     17  C   UNL     1      24.483  75.363  46.139  1.00  0.00    +0.038 A 
ATOM     18  C   UNL     1      27.065  74.350  46.519  1.00  0.00    +0.048 A 
ATOM     19  C   UNL     1      25.282  75.023  45.044  1.00  0.00    +0.042 A 
ATOM     20  C   UNL     1      26.570  74.526  45.228  1.00  0.00    +0.024 A 
ATOM     21 Cl   UNL     1      24.663  75.218  43.451  1.00  0.00    -0.084 Cl
BRANCH  16  22
ATOM     22  O   UNL     1      26.825  74.451  48.848  1.00  0.00    -0.507 OA
ATOM     23  H   UNL     1      26.660  73.511  49.087  1.00  0.00    +0.293 HD
ENDBRANCH  16  22
ENDBRANCH   3  15
TORSDOF 4
ENDMDL
MODEL 6
REMARK VINA RESULT:    -7.851      5.468      7.478
REMARK INTER + INTRA:         -10.169
REMARK INTER:                  -9.722
REMARK INTRA:                  -0.448
REMARK UNBOUND:                -0.712
REMARK SMILES O=C(Nc1ccc([N+](=O)[O-])cc1Cl)c1cc(Cl)ccc1O
REMARK SMILES IDX 1 1 3 2 2 3 4 5 12 6 11 7 5 8 7 9 6 10 13 11 8 12 9 13 10 14
REMARK SMILES IDX 14 15 20 16 15 17 19 18 16 19 18 20 17 21 21 22
REMARK H PARENT 3 4 21 23
ROOT
ATOM      1  O   UNL     1      20.576  71.259  45.339  1.00  0.00    -0.269 OA
ATOM      2  N   UNL     1      20.113  71.077  47.613  1.00  0.00    -0.321 N 
ATOM      3  C   UNL     1      20.112  70.651  46.300  1.00  0.00    +0.259 C 
ATOM      4  H   UNL     1      19.550  70.562  48.283  1.00  0.00    +0.170 HD
ENDROOT
BRANCH   2   5
ATOM      5  C   UNL     1      20.721  72.241  48.146  1.00  0.00    +0.060 A 
ATOM      6  C   UNL     1      19.981  73.443  48.139  1.00  0.00    +0.071 A 
ATOM      7  C   UNL     1      20.513  74.629  48.649  1.00  0.00    +0.108 A 
ATOM      8  C   UNL     1      22.009  72.255  48.689  1.00  0.00    +0.035 A 
ATOM      9  C   UNL     1      21.806  74.619  49.182  1.00  0.00    +0.271 A 
ATOM     10  C   UNL     1      22.555  73.437  49.204  1.00  0.00    +0.088 A 
ATOM     11 Cl   UNL     1      18.373  73.487  47.491  1.00  0.00    -0.082 Cl
BRANCH   9  12
ATOM     12  N   UNL     1      22.379  75.857  49.723  1.00  0.00    +0.062 N 
ATOM     13  O   UNL     1      21.631  76.840  49.822  1.00  0.00    -0.258 OA
ATOM     14  O   UNL     1      23.574  75.844  50.048  1.00  0.00    -0.258 OA
ENDBRANCH   9  12
ENDBRANCH   2   5
BRANCH   3  15
ATOM     15  C   UNL     1      19.427  69.354  46.027  1.00  0.00    +0.083 A 
ATOM     16  C   UNL     1      18.405  68.917  46.886  1.00  0.00    +0.128 A 
ATOM     17  C   UNL     1      19.762  68.566  44.915  1.00  0.00    +0.038 A 
ATOM     18  C   UNL     1      17.763  67.698  46.672  1.00  0.00    +0.048 A 
ATOM     19  C   UNL     1      19.108  67.350  44.703  1.00  0.00    +0.042 A 
ATOM     20  C   UNL     1      18.118  66.910  45.578  1.00  0.00    +0.024 A 
ATOM     21 Cl   UNL     1      19.530  66.388  43.341  1.00  0.00    -0.084 Cl
BRANCH  16  22
ATOM     22  O   UNL     1      17.977  69.639  47.968  1.00  0.00    -0.507 OA
ATOM     23  H   UNL     1      17.028  69.860  47.831  1.00  0.00    +0.293 HD
ENDBRANCH  16  22
ENDBRANCH   3  15
TORSDOF 4
ENDMDL
MODEL 7
REMARK VINA RESULT:    -7.804     11.748     12.788
REMARK INTER + INTRA:         -10.113
REMARK INTER:                  -9.406
REMARK INTRA:                  -0.707
REMARK UNBOUND:                -0.712
REMARK SMILES O=C(Nc1ccc([N+](=O)[O-])cc1Cl)c1cc(Cl)ccc1O
REMARK SMILES IDX 1 1 3 2 2 3 4 5 12 6 11 7 5 8 7 9 6 10 13 11 8 12 9 13 10 14
REMARK SMILES IDX 14 15 20 16 15 17 19 18 16 19 18 20 17 21 21 22
REMARK H PARENT 3 4 21 23
ROOT
ATOM      1  O   UNL     1      18.973  65.718  42.506  1.00  0.00    -0.269 OA
ATOM      2  N   UNL     1      17.465  67.360  41.841  1.00  0.00    -0.321 N 
ATOM      3  C   UNL     1      18.268  66.695  42.744  1.00  0.00    +0.259 C 
ATOM      4  H   UNL     1      16.806  68.044  42.201  1.00  0.00    +0.170 HD
ENDROOT
BRANCH   2   5
ATOM      5  C   UNL     1      17.350  67.130  40.448  1.00  0.00    +0.060 A 
ATOM      6  C   UNL     1      16.148  66.576  39.960  1.00  0.00    +0.071 A 
ATOM      7  C   UNL     1      15.962  66.323  38.599  1.00  0.00    +0.108 A 
ATOM      8  C   UNL     1      18.363  67.436  39.533  1.00  0.00    +0.035 A 
ATOM      9  C   UNL     1      16.991  66.632  37.704  1.00  0.00    +0.271 A 
ATOM     10  C   UNL     1      18.190  67.187  38.166  1.00  0.00    +0.088 A 
ATOM     11 Cl   UNL     1      14.850  66.188  41.042  1.00  0.00    -0.082 Cl
BRANCH   9  12
ATOM     12  N   UNL     1      16.811  66.373  36.271  1.00  0.00    +0.062 N 
ATOM     13  O   UNL     1      17.465  65.448  35.768  1.00  0.00    -0.258 OA
ATOM     14  O   UNL     1      16.018  67.094  35.650  1.00  0.00    -0.258 OA
ENDBRANCH   9  12
ENDBRANCH   2   5
BRANCH   3  15
ATOM     15  C   UNL     1      18.222  67.181  44.154  1.00  0.00    +0.083 A 
ATOM     16  C   UNL     1      19.422  67.453  44.832  1.00  0.00    +0.128 A 
ATOM     17  C   UNL     1      17.004  67.399  44.815  1.00  0.00    +0.038 A 
ATOM     18  C   UNL     1      19.412  67.885  46.157  1.00  0.00    +0.048 A 
ATOM     19  C   UNL     1      17.003  67.841  46.141  1.00  0.00    +0.042 A 
ATOM     20  C   UNL     1      18.198  68.076  46.816  1.00  0.00    +0.024 A 
ATOM     21 Cl   UNL     1      15.504  68.099  46.946  1.00  0.00    -0.084 Cl
BRANCH  16  22
ATOM     22  O   UNL     1      20.656  67.316  44.255  1.00  0.00    -0.507 OA
ATOM     23  H   UNL     1      20.527  67.182  43.288  1.00  0.00    +0.293 HD
ENDBRANCH  16  22
ENDBRANCH   3  15
TORSDOF 4
ENDMDL
MODEL 8
REMARK VINA RESULT:    -7.799      2.642      7.481
REMARK INTER + INTRA:         -10.106
REMARK INTER:                  -9.440
REMARK INTRA:                  -0.666
REMARK UNBOUND:                -0.712
REMARK SMILES O=C(Nc1ccc([N+](=O)[O-])cc1Cl)c1cc(Cl)ccc1O
REMARK SMILES IDX 1 1 3 2 2 3 4 5 12 6 11 7 5 8 7 9 6 10 13 11 8 12 9 13 10 14
REMARK SMILES IDX 14 15 20 16 15 17 19 18 16 19 18 20 17 21 21 22
REMARK H PARENT 3 4 21 23
ROOT
ATOM      1  O   UNL     1      24.268  76.045  49.537  1.00  0.00    -0.269 OA
ATOM      2  N   UNL     1      23.055  74.193  48.820  1.00  0.00    -0.321 N 
ATOM      3  C   UNL     1      24.020  75.174  48.708  1.00  0.00    +0.259 C 
ATOM      4  H   UNL     1      22.838  73.641  47.996  1.00  0.00    +0.170 HD
ENDROOT
BRANCH   2   5
ATOM      5  C   UNL     1      22.221  73.920  49.932  1.00  0.00    +0.060 A 
ATOM      6  C   UNL     1      20.825  74.031  49.761  1.00  0.00    +0.071 A 
ATOM      7  C   UNL     1      19.940  73.775  50.811  1.00  0.00    +0.108 A 
ATOM      8  C   UNL     1      22.711  73.535  51.184  1.00  0.00    +0.035 A 
ATOM      9  C   UNL     1      20.454  73.397  52.055  1.00  0.00    +0.271 A 
ATOM     10  C   UNL     1      21.835  73.276  52.245  1.00  0.00    +0.088 A 
ATOM     11 Cl   UNL     1      20.155  74.491  48.230  1.00  0.00    -0.082 Cl
BRANCH   9  12
ATOM     12  N   UNL     1      19.537  73.124  53.168  1.00  0.00    +0.062 N 
ATOM     13  O   UNL     1      18.492  73.787  53.227  1.00  0.00    -0.258 OA
ATOM     14  O   UNL     1      19.864  72.249  53.982  1.00  0.00    -0.258 OA
ENDBRANCH   9  12
ENDBRANCH   2   5
BRANCH   3  15
ATOM     15  C   UNL     1      24.787  75.204  47.429  1.00  0.00    +0.083 A 
ATOM     16  C   UNL     1      26.191  75.203  47.464  1.00  0.00    +0.128 A 
ATOM     17  C   UNL     1      24.139  75.209  46.184  1.00  0.00    +0.038 A 
ATOM     18  C   UNL     1      26.936  75.255  46.286  1.00  0.00    +0.048 A 
ATOM     19  C   UNL     1      24.892  75.253  45.009  1.00  0.00    +0.042 A 
ATOM     20  C   UNL     1      26.284  75.284  45.054  1.00  0.00    +0.024 A 
ATOM     21 Cl   UNL     1      24.089  75.265  43.488  1.00  0.00    -0.084 Cl
BRANCH  16  22
ATOM     22  O   UNL     1      26.912  75.151  48.627  1.00  0.00    -0.507 OA
ATOM     23  H   UNL     1      27.300  76.042  48.785  1.00  0.00    +0.293 HD
ENDBRANCH  16  22
ENDBRANCH   3  15
TORSDOF 4
ENDMDL
MODEL 9
REMARK VINA RESULT:    -7.721      5.415      6.646
REMARK INTER + INTRA:         -10.013
REMARK INTER:                  -9.455
REMARK INTRA:                  -0.558
REMARK UNBOUND:                -0.712
REMARK SMILES O=C(Nc1ccc([N+](=O)[O-])cc1Cl)c1cc(Cl)ccc1O
REMARK SMILES IDX 1 1 3 2 2 3 4 5 12 6 11 7 5 8 7 9 6 10 13 11 8 12 9 13 10 14
REMARK SMILES IDX 14 15 20 16 15 17 19 18 16 19 18 20 17 21 21 22
REMARK H PARENT 3 4 21 23
ROOT
ATOM      1  O   UNL     1      20.933  70.807  45.410  1.00  0.00    -0.269 OA
ATOM      2  N   UNL     1      20.251  71.418  47.549  1.00  0.00    -0.321 N 
ATOM      3  C   UNL     1      20.197  70.680  46.384  1.00  0.00    +0.259 C 
ATOM      4  H   UNL     1      19.483  71.330  48.207  1.00  0.00    +0.170 HD
ENDROOT
BRANCH   2   5
ATOM      5  C   UNL     1      21.207  72.400  47.909  1.00  0.00    +0.060 A 
ATOM      6  C   UNL     1      21.128  73.666  47.293  1.00  0.00    +0.071 A 
ATOM      7  C   UNL     1      22.034  74.684  47.600  1.00  0.00    +0.108 A 
ATOM      8  C   UNL     1      22.215  72.180  48.854  1.00  0.00    +0.035 A 
ATOM      9  C   UNL     1      23.037  74.438  48.543  1.00  0.00    +0.271 A 
ATOM     10  C   UNL     1      23.130  73.191  49.171  1.00  0.00    +0.088 A 
ATOM     11 Cl   UNL     1      19.893  74.005  46.125  1.00  0.00    -0.082 Cl
BRANCH   9  12
ATOM     12  N   UNL     1      23.996  75.498  48.877  1.00  0.00    +0.062 N 
ATOM     13  O   UNL     1      23.794  76.149  49.912  1.00  0.00    -0.258 OA
ATOM     14  O   UNL     1      24.949  75.677  48.106  1.00  0.00    -0.258 OA
ENDBRANCH   9  12
ENDBRANCH   2   5
BRANCH   3  15
ATOM     15  C   UNL     1      19.098  69.675  46.289  1.00  0.00    +0.083 A 
ATOM     16  C   UNL     1      19.301  68.495  45.554  1.00  0.00    +0.128 A 
ATOM     17  C   UNL     1      17.869  69.868  46.938  1.00  0.00    +0.038 A 
ATOM     18  C   UNL     1      18.285  67.549  45.427  1.00  0.00    +0.048 A 
ATOM     19  C   UNL     1      16.860  68.911  46.812  1.00  0.00    +0.042 A 
ATOM     20  C   UNL     1      17.058  67.759  46.055  1.00  0.00    +0.024 A 
ATOM     21 Cl   UNL     1      15.354  69.159  47.606  1.00  0.00    -0.084 Cl
BRANCH  16  22
ATOM     22  O   UNL     1      20.481  68.197  44.927  1.00  0.00    -0.507 OA
ATOM     23  H   UNL     1      20.634  68.873  44.228  1.00  0.00    +0.293 HD
ENDBRANCH  16  22
ENDBRANCH   3  15
TORSDOF 4
ENDMDL
