MODEL 1
REMARK VINA RESULT:    -8.680      0.000      0.000
REMARK INTER + INTRA:         -11.132
REMARK INTER:                 -10.456
REMARK INTRA:                  -0.676
REMARK UNBOUND:                -0.676
REMARK SMILES O=C(Nc1ccc([N+](=O)[O-])cc1Cl)c1cc(Cl)ccc1O
REMARK SMILES IDX 1 1 3 2 2 3 4 5 12 6 11 7 5 8 7 9 6 10 13 11 8 12 9 13 10 14
REMARK SMILES IDX 14 15 20 16 15 17 19 18 16 19 18 20 17 21 21 22
REMARK H PARENT 3 4 21 23
ROOT
ATOM      1  O   UNL     1     -41.913  12.028  10.048  1.00  0.00    -0.269 OA
ATOM      2  N   UNL     1     -39.719  12.180   9.287  1.00  0.00    -0.321 N 
ATOM      3  C   UNL     1     -40.925  12.684   9.730  1.00  0.00    +0.259 C 
ATOM      4  H   UNL     1     -39.044  12.830   8.897  1.00  0.00    +0.170 HD
ENDROOT
BRANCH   2   5
ATOM      5  C   UNL     1     -39.330  10.821   9.193  1.00  0.00    +0.060 A 
ATOM      6  C   UNL     1     -38.635  10.250  10.281  1.00  0.00    +0.071 A 
ATOM      7  C   UNL     1     -38.221   8.916  10.261  1.00  0.00    +0.108 A 
ATOM      8  C   UNL     1     -39.610  10.015   8.085  1.00  0.00    +0.035 A 
ATOM      9  C   UNL     1     -38.508   8.133   9.139  1.00  0.00    +0.271 A 
ATOM     10  C   UNL     1     -39.201   8.676   8.053  1.00  0.00    +0.088 A 
ATOM     11 Cl   UNL     1     -38.269  11.193  11.689  1.00  0.00    -0.082 Cl
BRANCH   9  12
ATOM     12  N   UNL     1     -38.081   6.729   9.104  1.00  0.00    +0.062 N 
ATOM     13  O   UNL     1     -37.516   6.275  10.110  1.00  0.00    -0.258 OA
ATOM     14  O   UNL     1     -38.310   6.083   8.073  1.00  0.00    -0.258 OA
ENDBRANCH   9  12
ENDBRANCH   2   5
BRANCH   3  15
ATOM     15  C   UNL     1     -41.047  14.171   9.766  1.00  0.00    +0.083 A 
ATOM     16  C   UNL     1     -41.323  14.871   8.579  1.00  0.00    +0.128 A 
ATOM     17  C   UNL     1     -40.916  14.890  10.964  1.00  0.00    +0.038 A 
ATOM     18  C   UNL     1     -41.418  16.262   8.576  1.00  0.00    +0.048 A 
ATOM     19  C   UNL     1     -41.021  16.283  10.953  1.00  0.00    +0.042 A 
ATOM     20  C   UNL     1     -41.263  16.971   9.766  1.00  0.00    +0.024 A 
ATOM     21 Cl   UNL     1     -40.854  17.156  12.425  1.00  0.00    -0.084 Cl
BRANCH  16  22
ATOM     22  O   UNL     1     -41.513  14.253   7.372  1.00  0.00    -0.507 OA
ATOM     23  H   UNL     1     -40.679  14.329   6.856  1.00  0.00    +0.293 HD
ENDBRANCH  16  22
ENDBRANCH   3  15
TORSDOF 4
ENDMDL
MODEL 2
REMARK VINA RESULT:    -8.189      2.024      2.362
REMARK INTER + INTRA:         -10.540
REMARK INTER:                  -9.828
REMARK INTRA:                  -0.712
REMARK UNBOUND:                -0.676
REMARK SMILES O=C(Nc1ccc([N+](=O)[O-])cc1Cl)c1cc(Cl)ccc1O
REMARK SMILES IDX 1 1 3 2 2 3 4 5 12 6 11 7 5 8 7 9 6 10 13 11 8 12 9 13 10 14
REMARK SMILES IDX 14 15 20 16 15 17 19 18 16 19 18 20 17 21 21 22
REMARK H PARENT 3 4 21 23
ROOT
ATOM      1  O   UNL     1     -38.446  12.407  10.580  1.00  0.00    -0.269 OA
ATOM      2  N   UNL     1     -40.363  11.471   9.651  1.00  0.00    -0.321 N 
ATOM      3  C   UNL     1     -39.594  12.500  10.155  1.00  0.00    +0.259 C 
ATOM      4  H   UNL     1     -41.350  11.646   9.490  1.00  0.00    +0.170 HD
ENDROOT
BRANCH   2   5
ATOM      5  C   UNL     1     -39.975  10.126   9.429  1.00  0.00    +0.060 A 
ATOM      6  C   UNL     1     -40.099   9.211  10.496  1.00  0.00    +0.071 A 
ATOM      7  C   UNL     1     -39.738   7.870  10.350  1.00  0.00    +0.108 A 
ATOM      8  C   UNL     1     -39.488   9.660   8.204  1.00  0.00    +0.035 A 
ATOM      9  C   UNL     1     -39.248   7.428   9.118  1.00  0.00    +0.271 A 
ATOM     10  C   UNL     1     -39.123   8.317   8.045  1.00  0.00    +0.088 A 
ATOM     11 Cl   UNL     1     -40.709   9.726  12.035  1.00  0.00    -0.082 Cl
BRANCH   9  12
ATOM     12  N   UNL     1     -38.866   6.021   8.949  1.00  0.00    +0.062 N 
ATOM     13  O   UNL     1     -38.849   5.306   9.961  1.00  0.00    -0.258 OA
ATOM     14  O   UNL     1     -38.584   5.634   7.806  1.00  0.00    -0.258 OA
ENDBRANCH   9  12
ENDBRANCH   2   5
BRANCH   3  15
ATOM     15  C   UNL     1     -40.252  13.837  10.239  1.00  0.00    +0.083 A 
ATOM     16  C   UNL     1     -40.536  14.389  11.499  1.00  0.00    +0.128 A 
ATOM     17  C   UNL     1     -40.573  14.571   9.088  1.00  0.00    +0.038 A 
ATOM     18  C   UNL     1     -41.172  15.624  11.611  1.00  0.00    +0.048 A 
ATOM     19  C   UNL     1     -41.203  15.812   9.209  1.00  0.00    +0.042 A 
ATOM     20  C   UNL     1     -41.510  16.337  10.461  1.00  0.00    +0.024 A 
ATOM     21 Cl   UNL     1     -41.599  16.703   7.791  1.00  0.00    -0.084 Cl
BRANCH  16  22
ATOM     22  O   UNL     1     -40.218  13.769  12.678  1.00  0.00    -0.507 OA
ATOM     23  H   UNL     1     -39.666  12.982  12.469  1.00  0.00    +0.293 HD
ENDBRANCH  16  22
ENDBRANCH   3  15
TORSDOF 4
ENDMDL
MODEL 3
REMARK VINA RESULT:    -8.060      3.127      7.686
REMARK INTER + INTRA:         -10.385
REMARK INTER:                  -9.669
REMARK INTRA:                  -0.716
REMARK UNBOUND:                -0.676
REMARK SMILES O=C(Nc1ccc([N+](=O)[O-])cc1Cl)c1cc(Cl)ccc1O
REMARK SMILES IDX 1 1 3 2 2 3 4 5 12 6 11 7 5 8 7 9 6 10 13 11 8 12 9 13 10 14
REMARK SMILES IDX 14 15 20 16 15 17 19 18 16 19 18 20 17 21 21 22
REMARK H PARENT 3 4 21 23
ROOT
ATOM      1  O   UNL     1     -40.382   8.645  11.301  1.00  0.00    -0.269 OA
ATOM      2  N   UNL     1     -38.529   9.920  10.704  1.00  0.00    -0.321 N 
ATOM      3  C   UNL     1     -39.168   8.800  11.196  1.00  0.00    +0.259 C 
ATOM      4  H   UNL     1     -37.523   9.989  10.827  1.00  0.00    +0.170 HD
ENDROOT
BRANCH   2   5
ATOM      5  C   UNL     1     -39.119  11.074  10.133  1.00  0.00    +0.060 A 
ATOM      6  C   UNL     1     -39.434  11.052   8.758  1.00  0.00    +0.071 A 
ATOM      7  C   UNL     1     -40.019  12.152   8.126  1.00  0.00    +0.108 A 
ATOM      8  C   UNL     1     -39.416  12.227  10.866  1.00  0.00    +0.035 A 
ATOM      9  C   UNL     1     -40.302  13.296   8.879  1.00  0.00    +0.271 A 
ATOM     10  C   UNL     1     -40.003  13.337  10.245  1.00  0.00    +0.088 A 
ATOM     11 Cl   UNL     1     -39.103   9.647   7.798  1.00  0.00    -0.082 Cl
BRANCH   9  12
ATOM     12  N   UNL     1     -40.918  14.459   8.230  1.00  0.00    +0.062 N 
ATOM     13  O   UNL     1     -40.571  15.584   8.620  1.00  0.00    -0.258 OA
ATOM     14  O   UNL     1     -41.746  14.248   7.334  1.00  0.00    -0.258 OA
ENDBRANCH   9  12
ENDBRANCH   2   5
BRANCH   3  15
ATOM     15  C   UNL     1     -38.289   7.705  11.701  1.00  0.00    +0.083 A 
ATOM     16  C   UNL     1     -37.188   7.293  10.933  1.00  0.00    +0.128 A 
ATOM     17  C   UNL     1     -38.520   7.091  12.942  1.00  0.00    +0.038 A 
ATOM     18  C   UNL     1     -36.362   6.256  11.366  1.00  0.00    +0.048 A 
ATOM     19  C   UNL     1     -37.683   6.059  13.372  1.00  0.00    +0.042 A 
ATOM     20  C   UNL     1     -36.612   5.634  12.589  1.00  0.00    +0.024 A 
ATOM     21 Cl   UNL     1     -37.977   5.308  14.891  1.00  0.00    -0.084 Cl
BRANCH  16  22
ATOM     22  O   UNL     1     -36.855   7.864   9.734  1.00  0.00    -0.507 OA
ATOM     23  H   UNL     1     -37.334   8.720   9.661  1.00  0.00    +0.293 HD
ENDBRANCH  16  22
ENDBRANCH   3  15
TORSDOF 4
ENDMDL
MODEL 4
REMARK VINA RESULT:    -8.059      1.723      2.575
REMARK INTER + INTRA:         -10.384
REMARK INTER:                  -9.668
REMARK INTRA:                  -0.716
REMARK UNBOUND:                -0.676
REMARK SMILES O=C(Nc1ccc([N+](=O)[O-])cc1Cl)c1cc(Cl)ccc1O
REMARK SMILES IDX 1 1 3 2 2 3 4 5 12 6 11 7 5 8 7 9 6 10 13 11 8 12 9 13 10 14
REMARK SMILES IDX 14 15 20 16 15 17 19 18 16 19 18 20 17 21 21 22
REMARK H PARENT 3 4 21 23
ROOT
ATOM      1  O   UNL     1     -42.077  12.027   9.684  1.00  0.00    -0.269 OA
ATOM      2  N   UNL     1     -39.947  11.368  10.350  1.00  0.00    -0.321 N 
ATOM      3  C   UNL     1     -41.054  12.192  10.342  1.00  0.00    +0.259 C 
ATOM      4  H   UNL     1     -39.104  11.703  10.805  1.00  0.00    +0.170 HD
ENDROOT
BRANCH   2   5
ATOM      5  C   UNL     1     -39.788  10.124   9.689  1.00  0.00    +0.060 A 
ATOM      6  C   UNL     1     -40.076   8.945  10.408  1.00  0.00    +0.071 A 
ATOM      7  C   UNL     1     -39.944   7.684   9.822  1.00  0.00    +0.108 A 
ATOM      8  C   UNL     1     -39.373  10.009   8.359  1.00  0.00    +0.035 A 
ATOM      9  C   UNL     1     -39.522   7.594   8.492  1.00  0.00    +0.271 A 
ATOM     10  C   UNL     1     -39.237   8.751   7.759  1.00  0.00    +0.088 A 
ATOM     11 Cl   UNL     1     -40.607   9.022  12.056  1.00  0.00    -0.082 Cl
BRANCH   9  12
ATOM     12  N   UNL     1     -39.379   6.277   7.862  1.00  0.00    +0.062 N 
ATOM     13  O   UNL     1     -38.381   5.604   8.157  1.00  0.00    -0.258 OA
ATOM     14  O   UNL     1     -40.264   5.916   7.073  1.00  0.00    -0.258 OA
ENDBRANCH   9  12
ENDBRANCH   2   5
BRANCH   3  15
ATOM     15  C   UNL     1     -40.962  13.430  11.170  1.00  0.00    +0.083 A 
ATOM     16  C   UNL     1     -40.810  13.320  12.563  1.00  0.00    +0.128 A 
ATOM     17  C   UNL     1     -40.998  14.707  10.590  1.00  0.00    +0.038 A 
ATOM     18  C   UNL     1     -40.745  14.457  13.366  1.00  0.00    +0.048 A 
ATOM     19  C   UNL     1     -40.924  15.841  11.401  1.00  0.00    +0.042 A 
ATOM     20  C   UNL     1     -40.806  15.723  12.784  1.00  0.00    +0.024 A 
ATOM     21 Cl   UNL     1     -40.975  17.403  10.681  1.00  0.00    -0.084 Cl
BRANCH  16  22
ATOM     22  O   UNL     1     -40.717  12.119  13.214  1.00  0.00    -0.507 OA
ATOM     23  H   UNL     1     -40.925  12.271  14.164  1.00  0.00    +0.293 HD
ENDBRANCH  16  22
ENDBRANCH   3  15
TORSDOF 4
ENDMDL
MODEL 5
REMARK VINA RESULT:    -7.825      2.172      2.528
REMARK INTER + INTRA:         -10.102
REMARK INTER:                  -9.394
REMARK INTRA:                  -0.708
REMARK UNBOUND:                -0.676
REMARK SMILES O=C(Nc1ccc([N+](=O)[O-])cc1Cl)c1cc(Cl)ccc1O
REMARK SMILES IDX 1 1 3 2 2 3 4 5 12 6 11 7 5 8 7 9 6 10 13 11 8 12 9 13 10 14
REMARK SMILES IDX 14 15 20 16 15 17 19 18 16 19 18 20 17 21 21 22
REMARK H PARENT 3 4 21 23
ROOT
ATOM      1  O   UNL     1     -38.446  12.167  10.732  1.00  0.00    -0.269 OA
ATOM      2  N   UNL     1     -40.124  10.993   9.628  1.00  0.00    -0.321 N 
ATOM      3  C   UNL     1     -39.398  12.119   9.959  1.00  0.00    +0.259 C 
ATOM      4  H   UNL     1     -40.989  11.117   9.112  1.00  0.00    +0.170 HD
ENDROOT
BRANCH   2   5
ATOM      5  C   UNL     1     -39.876   9.655  10.023  1.00  0.00    +0.060 A 
ATOM      6  C   UNL     1     -39.207   8.805   9.117  1.00  0.00    +0.071 A 
ATOM      7  C   UNL     1     -38.927   7.475   9.438  1.00  0.00    +0.108 A 
ATOM      8  C   UNL     1     -40.249   9.140  11.269  1.00  0.00    +0.035 A 
ATOM      9  C   UNL     1     -39.315   6.981  10.687  1.00  0.00    +0.271 A 
ATOM     10  C   UNL     1     -39.974   7.808  11.603  1.00  0.00    +0.088 A 
ATOM     11 Cl   UNL     1     -38.707   9.388   7.563  1.00  0.00    -0.082 Cl
BRANCH   9  12
ATOM     12  N   UNL     1     -39.026   5.586  11.040  1.00  0.00    +0.062 N 
ATOM     13  O   UNL     1     -39.957   4.904  11.491  1.00  0.00    -0.258 OA
ATOM     14  O   UNL     1     -37.871   5.175  10.865  1.00  0.00    -0.258 OA
ENDBRANCH   9  12
ENDBRANCH   2   5
BRANCH   3  15
ATOM     15  C   UNL     1     -39.863  13.405   9.360  1.00  0.00    +0.083 A 
ATOM     16  C   UNL     1     -39.633  13.655   7.997  1.00  0.00    +0.128 A 
ATOM     17  C   UNL     1     -40.549  14.363  10.121  1.00  0.00    +0.038 A 
ATOM     18  C   UNL     1     -40.034  14.856   7.414  1.00  0.00    +0.048 A 
ATOM     19  C   UNL     1     -40.955  15.561   9.527  1.00  0.00    +0.042 A 
ATOM     20  C   UNL     1     -40.694  15.815   8.182  1.00  0.00    +0.024 A 
ATOM     21 Cl   UNL     1     -41.790  16.733  10.469  1.00  0.00    -0.084 Cl
BRANCH  16  22
ATOM     22  O   UNL     1     -39.015  12.761   7.165  1.00  0.00    -0.507 OA
ATOM     23  H   UNL     1     -38.452  12.170   7.716  1.00  0.00    +0.293 HD
ENDBRANCH  16  22
ENDBRANCH   3  15
TORSDOF 4
ENDMDL
MODEL 6
REMARK VINA RESULT:    -7.755      2.289      2.855
REMARK INTER + INTRA:         -10.018
REMARK INTER:                  -9.354
REMARK INTRA:                  -0.664
REMARK UNBOUND:                -0.676
REMARK SMILES O=C(Nc1ccc([N+](=O)[O-])cc1Cl)c1cc(Cl)ccc1O
REMARK SMILES IDX 1 1 3 2 2 3 4 5 12 6 11 7 5 8 7 9 6 10 13 11 8 12 9 13 10 14
REMARK SMILES IDX 14 15 20 16 15 17 19 18 16 19 18 20 17 21 21 22
REMARK H PARENT 3 4 21 23
ROOT
ATOM      1  O   UNL     1     -42.397  11.305  11.155  1.00  0.00    -0.269 OA
ATOM      2  N   UNL     1     -40.091  11.086  10.935  1.00  0.00    -0.321 N 
ATOM      3  C   UNL     1     -41.252  11.689  11.375  1.00  0.00    +0.259 C 
ATOM      4  H   UNL     1     -39.219  11.594  11.042  1.00  0.00    +0.170 HD
ENDROOT
BRANCH   2   5
ATOM      5  C   UNL     1     -39.963   9.864  10.230  1.00  0.00    +0.060 A 
ATOM      6  C   UNL     1     -39.718   9.918   8.841  1.00  0.00    +0.071 A 
ATOM      7  C   UNL     1     -39.578   8.755   8.080  1.00  0.00    +0.108 A 
ATOM      8  C   UNL     1     -40.052   8.610  10.842  1.00  0.00    +0.035 A 
ATOM      9  C   UNL     1     -39.678   7.513   8.714  1.00  0.00    +0.271 A 
ATOM     10  C   UNL     1     -39.913   7.436  10.091  1.00  0.00    +0.088 A 
ATOM     11 Cl   UNL     1     -39.583  11.443   8.027  1.00  0.00    -0.082 Cl
BRANCH   9  12
ATOM     12  N   UNL     1     -39.531   6.282   7.929  1.00  0.00    +0.062 N 
ATOM     13  O   UNL     1     -38.473   5.647   8.048  1.00  0.00    -0.258 OA
ATOM     14  O   UNL     1     -40.472   5.952   7.194  1.00  0.00    -0.258 OA
ENDBRANCH   9  12
ENDBRANCH   2   5
BRANCH   3  15
ATOM     15  C   UNL     1     -41.088  12.961  12.139  1.00  0.00    +0.083 A 
ATOM     16  C   UNL     1     -41.362  14.186  11.510  1.00  0.00    +0.128 A 
ATOM     17  C   UNL     1     -40.689  12.962  13.484  1.00  0.00    +0.038 A 
ATOM     18  C   UNL     1     -41.195  15.392  12.189  1.00  0.00    +0.048 A 
ATOM     19  C   UNL     1     -40.532  14.174  14.160  1.00  0.00    +0.042 A 
ATOM     20  C   UNL     1     -40.774  15.386  13.519  1.00  0.00    +0.024 A 
ATOM     21 Cl   UNL     1     -40.035  14.167  15.808  1.00  0.00    -0.084 Cl
BRANCH  16  22
ATOM     22  O   UNL     1     -41.802  14.282  10.216  1.00  0.00    -0.507 OA
ATOM     23  H   UNL     1     -42.769  14.461  10.236  1.00  0.00    +0.293 HD
ENDBRANCH  16  22
ENDBRANCH   3  15
TORSDOF 4
ENDMDL
MODEL 7
REMARK VINA RESULT:    -7.633      4.939      6.402
REMARK INTER + INTRA:          -9.870
REMARK INTER:                  -9.143
REMARK INTRA:                  -0.727
REMARK UNBOUND:                -0.676
REMARK SMILES O=C(Nc1ccc([N+](=O)[O-])cc1Cl)c1cc(Cl)ccc1O
REMARK SMILES IDX 1 1 3 2 2 3 4 5 12 6 11 7 5 8 7 9 6 10 13 11 8 12 9 13 10 14
REMARK SMILES IDX 14 15 20 16 15 17 19 18 16 19 18 20 17 21 21 22
REMARK H PARENT 3 4 21 23
ROOT
ATOM      1  O   UNL     1     -37.203   8.655  13.506  1.00  0.00    -0.269 OA
ATOM      2  N   UNL     1     -39.507   8.787  13.210  1.00  0.00    -0.321 N 
ATOM      3  C   UNL     1     -38.315   9.031  13.863  1.00  0.00    +0.259 C 
ATOM      4  H   UNL     1     -40.371   9.007  13.696  1.00  0.00    +0.170 HD
ENDROOT
BRANCH   2   5
ATOM      5  C   UNL     1     -39.696   8.145  11.961  1.00  0.00    +0.060 A 
ATOM      6  C   UNL     1     -39.655   8.935  10.793  1.00  0.00    +0.071 A 
ATOM      7  C   UNL     1     -39.830   8.372   9.526  1.00  0.00    +0.108 A 
ATOM      8  C   UNL     1     -39.908   6.769  11.829  1.00  0.00    +0.035 A 
ATOM      9  C   UNL     1     -40.046   6.995   9.420  1.00  0.00    +0.271 A 
ATOM     10  C   UNL     1     -40.085   6.192  10.565  1.00  0.00    +0.088 A 
ATOM     11 Cl   UNL     1     -39.383  10.644  10.890  1.00  0.00    -0.082 Cl
BRANCH   9  12
ATOM     12  N   UNL     1     -40.232   6.388   8.096  1.00  0.00    +0.062 N 
ATOM     13  O   UNL     1     -41.392   6.150   7.731  1.00  0.00    -0.258 OA
ATOM     14  O   UNL     1     -39.218   6.150   7.425  1.00  0.00    -0.258 OA
ENDBRANCH   9  12
ENDBRANCH   2   5
BRANCH   3  15
ATOM     15  C   UNL     1     -38.409   9.772  15.154  1.00  0.00    +0.083 A 
ATOM     16  C   UNL     1     -38.069   9.121  16.352  1.00  0.00    +0.128 A 
ATOM     17  C   UNL     1     -38.806  11.117  15.201  1.00  0.00    +0.038 A 
ATOM     18  C   UNL     1     -38.169   9.779  17.576  1.00  0.00    +0.048 A 
ATOM     19  C   UNL     1     -38.896  11.772  16.432  1.00  0.00    +0.042 A 
ATOM     20  C   UNL     1     -38.588  11.109  17.618  1.00  0.00    +0.024 A 
ATOM     21 Cl   UNL     1     -39.390  13.419  16.481  1.00  0.00    -0.084 Cl
BRANCH  16  22
ATOM     22  O   UNL     1     -37.626   7.826  16.401  1.00  0.00    -0.507 OA
ATOM     23  H   UNL     1     -38.403   7.234  16.287  1.00  0.00    +0.293 HD
ENDBRANCH  16  22
ENDBRANCH   3  15
TORSDOF 4
ENDMDL
MODEL 8
REMARK VINA RESULT:    -7.553      6.748      8.024
REMARK INTER + INTRA:          -9.774
REMARK INTER:                  -9.070
REMARK INTRA:                  -0.704
REMARK UNBOUND:                -0.676
REMARK SMILES O=C(Nc1ccc([N+](=O)[O-])cc1Cl)c1cc(Cl)ccc1O
REMARK SMILES IDX 1 1 3 2 2 3 4 5 12 6 11 7 5 8 7 9 6 10 13 11 8 12 9 13 10 14
REMARK SMILES IDX 14 15 20 16 15 17 19 18 16 19 18 20 17 21 21 22
REMARK H PARENT 3 4 21 23
ROOT
ATOM      1  O   UNL     1     -36.851   8.647  17.268  1.00  0.00    -0.269 OA
ATOM      2  N   UNL     1     -38.868   8.652  16.108  1.00  0.00    -0.321 N 
ATOM      3  C   UNL     1     -37.992   9.064  17.092  1.00  0.00    +0.259 C 
ATOM      4  H   UNL     1     -39.836   8.952  16.175  1.00  0.00    +0.170 HD
ENDROOT
BRANCH   2   5
ATOM      5  C   UNL     1     -38.619   7.745  15.049  1.00  0.00    +0.060 A 
ATOM      6  C   UNL     1     -37.940   8.224  13.908  1.00  0.00    +0.071 A 
ATOM      7  C   UNL     1     -37.657   7.388  12.825  1.00  0.00    +0.108 A 
ATOM      8  C   UNL     1     -38.998   6.400  15.083  1.00  0.00    +0.035 A 
ATOM      9  C   UNL     1     -38.052   6.048  12.880  1.00  0.00    +0.271 A 
ATOM     10  C   UNL     1     -38.720   5.551  14.005  1.00  0.00    +0.088 A 
ATOM     11 Cl   UNL     1     -37.432   9.878  13.811  1.00  0.00    -0.082 Cl
BRANCH   9  12
ATOM     12  N   UNL     1     -37.760   5.156  11.751  1.00  0.00    +0.062 N 
ATOM     13  O   UNL     1     -36.640   5.240  11.228  1.00  0.00    -0.258 OA
ATOM     14  O   UNL     1     -38.651   4.375  11.389  1.00  0.00    -0.258 OA
ENDBRANCH   9  12
ENDBRANCH   2   5
BRANCH   3  15
ATOM     15  C   UNL     1     -38.513  10.071  18.062  1.00  0.00    +0.083 A 
ATOM     16  C   UNL     1     -38.954  11.320  17.594  1.00  0.00    +0.128 A 
ATOM     17  C   UNL     1     -38.599   9.791  19.434  1.00  0.00    +0.038 A 
ATOM     18  C   UNL     1     -39.424  12.289  18.479  1.00  0.00    +0.048 A 
ATOM     19  C   UNL     1     -39.079  10.765  20.313  1.00  0.00    +0.042 A 
ATOM     20  C   UNL     1     -39.483  12.013  19.844  1.00  0.00    +0.024 A 
ATOM     21 Cl   UNL     1     -39.175  10.416  21.995  1.00  0.00    -0.084 Cl
BRANCH  16  22
ATOM     22  O   UNL     1     -38.953  11.666  16.269  1.00  0.00    -0.507 OA
ATOM     23  H   UNL     1     -38.833  10.845  15.740  1.00  0.00    +0.293 HD
ENDBRANCH  16  22
ENDBRANCH   3  15
TORSDOF 4
ENDMDL
MODEL 9
REMARK VINA RESULT:    -7.547      2.711      7.362
REMARK INTER + INTRA:          -9.767
REMARK INTER:                  -9.161
REMARK INTRA:                  -0.606
REMARK UNBOUND:                -0.676
REMARK SMILES O=C(Nc1ccc([N+](=O)[O-])cc1Cl)c1cc(Cl)ccc1O
REMARK SMILES IDX 1 1 3 2 2 3 4 5 12 6 11 7 5 8 7 9 6 10 13 11 8 12 9 13 10 14
REMARK SMILES IDX 14 15 20 16 15 17 19 18 16 19 18 20 17 21 21 22
REMARK H PARENT 3 4 21 23
ROOT
ATOM      1  O   UNL     1     -40.340   9.063   9.909  1.00  0.00    -0.269 OA
ATOM      2  N   UNL     1     -39.197  10.867  10.833  1.00  0.00    -0.321 N 
ATOM      3  C   UNL     1     -39.525   9.533  10.698  1.00  0.00    +0.259 C 
ATOM      4  H   UNL     1     -38.637  11.142  11.634  1.00  0.00    +0.170 HD
ENDROOT
BRANCH   2   5
ATOM      5  C   UNL     1     -39.645  11.955  10.044  1.00  0.00    +0.060 A 
ATOM      6  C   UNL     1     -40.266  13.041  10.696  1.00  0.00    +0.071 A 
ATOM      7  C   UNL     1     -40.731  14.149   9.984  1.00  0.00    +0.108 A 
ATOM      8  C   UNL     1     -39.492  12.011   8.655  1.00  0.00    +0.035 A 
ATOM      9  C   UNL     1     -40.572  14.179   8.595  1.00  0.00    +0.271 A 
ATOM     10  C   UNL     1     -39.954  13.115   7.928  1.00  0.00    +0.088 A 
ATOM     11 Cl   UNL     1     -40.473  13.037  12.417  1.00  0.00    -0.082 Cl
BRANCH   9  12
ATOM     12  N   UNL     1     -41.054  15.337   7.833  1.00  0.00    +0.062 N 
ATOM     13  O   UNL     1     -40.640  15.473   6.672  1.00  0.00    -0.258 OA
ATOM     14  O   UNL     1     -41.845  16.107   8.394  1.00  0.00    -0.258 OA
ENDBRANCH   9  12
ENDBRANCH   2   5
BRANCH   3  15
ATOM     15  C   UNL     1     -38.865   8.590  11.647  1.00  0.00    +0.083 A 
ATOM     16  C   UNL     1     -37.478   8.383  11.563  1.00  0.00    +0.128 A 
ATOM     17  C   UNL     1     -39.592   7.921  12.642  1.00  0.00    +0.038 A 
ATOM     18  C   UNL     1     -36.835   7.491  12.420  1.00  0.00    +0.048 A 
ATOM     19  C   UNL     1     -38.940   7.034  13.502  1.00  0.00    +0.042 A 
ATOM     20  C   UNL     1     -37.569   6.810  13.391  1.00  0.00    +0.024 A 
ATOM     21 Cl   UNL     1     -39.841   6.213  14.716  1.00  0.00    -0.084 Cl
BRANCH  16  22
ATOM     22  O   UNL     1     -36.678   9.027  10.657  1.00  0.00    -0.507 OA
ATOM     23  H   UNL     1     -36.215   9.759  11.125  1.00  0.00    +0.293 HD
ENDBRANCH  16  22
ENDBRANCH   3  15
TORSDOF 4
ENDMDL
