MODEL 1
REMARK VINA RESULT:    -6.418      0.000      0.000
REMARK INTER + INTRA:          -8.462
REMARK INTER:                  -7.732
REMARK INTRA:                  -0.730
REMARK UNBOUND:                -0.730
REMARK SMILES O=C(Nc1ccc([N+](=O)[O-])cc1Cl)c1cc(Cl)ccc1O
REMARK SMILES IDX 1 1 3 2 2 3 4 5 12 6 11 7 5 8 7 9 6 10 13 11 8 12 9 13 10 14
REMARK SMILES IDX 14 15 20 16 15 17 19 18 16 19 18 20 17 21 21 22
REMARK H PARENT 3 4 21 23
ROOT
ATOM      1  O   UNL     1       1.051  13.803  -3.013  1.00  0.00    -0.269 OA
ATOM      2  N   UNL     1       1.643  12.244  -1.390  1.00  0.00    -0.321 N 
ATOM      3  C   UNL     1       0.758  12.993  -2.139  1.00  0.00    +0.259 C 
ATOM      4  H   UNL     1       1.282  11.739  -0.587  1.00  0.00    +0.170 HD
ENDROOT
BRANCH   2   5
ATOM      5  C   UNL     1       3.052  12.176  -1.527  1.00  0.00    +0.060 A 
ATOM      6  C   UNL     1       3.846  12.915  -0.625  1.00  0.00    +0.071 A 
ATOM      7  C   UNL     1       5.241  12.894  -0.697  1.00  0.00    +0.108 A 
ATOM      8  C   UNL     1       3.693  11.403  -2.500  1.00  0.00    +0.035 A 
ATOM      9  C   UNL     1       5.859  12.119  -1.682  1.00  0.00    +0.271 A 
ATOM     10  C   UNL     1       5.091  11.373  -2.583  1.00  0.00    +0.088 A 
ATOM     11 Cl   UNL     1       3.111  13.882   0.612  1.00  0.00    -0.082 Cl
BRANCH   9  12
ATOM     12  N   UNL     1       7.323  12.085  -1.770  1.00  0.00    +0.062 N 
ATOM     13  O   UNL     1       7.828  11.939  -2.892  1.00  0.00    -0.258 OA
ATOM     14  O   UNL     1       7.966  12.205  -0.718  1.00  0.00    -0.258 OA
ENDBRANCH   9  12
ENDBRANCH   2   5
BRANCH   3  15
ATOM     15  C   UNL     1      -0.688  12.836  -1.804  1.00  0.00    +0.083 A 
ATOM     16  C   UNL     1      -1.575  12.352  -2.780  1.00  0.00    +0.128 A 
ATOM     17  C   UNL     1      -1.182  13.138  -0.526  1.00  0.00    +0.038 A 
ATOM     18  C   UNL     1      -2.935  12.218  -2.505  1.00  0.00    +0.048 A 
ATOM     19  C   UNL     1      -2.545  12.992  -0.257  1.00  0.00    +0.042 A 
ATOM     20  C   UNL     1      -3.423  12.543  -1.240  1.00  0.00    +0.024 A 
ATOM     21 Cl   UNL     1      -3.143  13.371   1.311  1.00  0.00    -0.084 Cl
BRANCH  16  22
ATOM     22  O   UNL     1      -1.178  11.987  -4.039  1.00  0.00    -0.507 OA
ATOM     23  H   UNL     1      -1.865  12.291  -4.675  1.00  0.00    +0.293 HD
ENDBRANCH  16  22
ENDBRANCH   3  15
TORSDOF 4
ENDMDL
MODEL 2
REMARK VINA RESULT:    -6.306      2.803      7.616
REMARK INTER + INTRA:          -8.327
REMARK INTER:                  -7.634
REMARK INTRA:                  -0.693
REMARK UNBOUND:                -0.730
REMARK SMILES O=C(Nc1ccc([N+](=O)[O-])cc1Cl)c1cc(Cl)ccc1O
REMARK SMILES IDX 1 1 3 2 2 3 4 5 12 6 11 7 5 8 7 9 6 10 13 11 8 12 9 13 10 14
REMARK SMILES IDX 14 15 20 16 15 17 19 18 16 19 18 20 17 21 21 22
REMARK H PARENT 3 4 21 23
ROOT
ATOM      1  O   UNL     1       2.937  14.288  -2.252  1.00  0.00    -0.269 OA
ATOM      2  N   UNL     1       2.218  12.164  -1.629  1.00  0.00    -0.321 N 
ATOM      3  C   UNL     1       3.155  13.106  -2.002  1.00  0.00    +0.259 C 
ATOM      4  H   UNL     1       2.499  11.189  -1.616  1.00  0.00    +0.170 HD
ENDROOT
BRANCH   2   5
ATOM      5  C   UNL     1       0.841  12.370  -1.362  1.00  0.00    +0.060 A 
ATOM      6  C   UNL     1       0.476  12.879  -0.098  1.00  0.00    +0.071 A 
ATOM      7  C   UNL     1      -0.861  13.110   0.236  1.00  0.00    +0.108 A 
ATOM      8  C   UNL     1      -0.169  12.106  -2.292  1.00  0.00    +0.035 A 
ATOM      9  C   UNL     1      -1.854  12.832  -0.709  1.00  0.00    +0.271 A 
ATOM     10  C   UNL     1      -1.513  12.332  -1.970  1.00  0.00    +0.088 A 
ATOM     11 Cl   UNL     1       1.683  13.240   1.093  1.00  0.00    -0.082 Cl
BRANCH   9  12
ATOM     12  N   UNL     1      -3.263  13.070  -0.374  1.00  0.00    +0.062 N 
ATOM     13  O   UNL     1      -4.116  12.392  -0.965  1.00  0.00    -0.258 OA
ATOM     14  O   UNL     1      -3.515  13.933   0.478  1.00  0.00    -0.258 OA
ENDBRANCH   9  12
ENDBRANCH   2   5
BRANCH   3  15
ATOM     15  C   UNL     1       4.554  12.614  -2.174  1.00  0.00    +0.083 A 
ATOM     16  C   UNL     1       5.275  12.175  -1.051  1.00  0.00    +0.128 A 
ATOM     17  C   UNL     1       5.161  12.555  -3.437  1.00  0.00    +0.038 A 
ATOM     18  C   UNL     1       6.591  11.733  -1.175  1.00  0.00    +0.048 A 
ATOM     19  C   UNL     1       6.478  12.102  -3.554  1.00  0.00    +0.042 A 
ATOM     20  C   UNL     1       7.197  11.700  -2.431  1.00  0.00    +0.024 A 
ATOM     21 Cl   UNL     1       7.217  12.039  -5.106  1.00  0.00    -0.084 Cl
BRANCH  16  22
ATOM     22  O   UNL     1       4.751  12.151   0.214  1.00  0.00    -0.507 OA
ATOM     23  H   UNL     1       5.498  12.151   0.853  1.00  0.00    +0.293 HD
ENDBRANCH  16  22
ENDBRANCH   3  15
TORSDOF 4
ENDMDL
MODEL 3
REMARK VINA RESULT:    -6.306      1.535      2.008
REMARK INTER + INTRA:          -8.326
REMARK INTER:                  -7.614
REMARK INTRA:                  -0.712
REMARK UNBOUND:                -0.730
REMARK SMILES O=C(Nc1ccc([N+](=O)[O-])cc1Cl)c1cc(Cl)ccc1O
REMARK SMILES IDX 1 1 3 2 2 3 4 5 12 6 11 7 5 8 7 9 6 10 13 11 8 12 9 13 10 14
REMARK SMILES IDX 14 15 20 16 15 17 19 18 16 19 18 20 17 21 21 22
REMARK H PARENT 3 4 21 23
ROOT
ATOM      1  O   UNL     1       1.140  13.994  -3.008  1.00  0.00    -0.269 OA
ATOM      2  N   UNL     1       1.633  12.144  -1.685  1.00  0.00    -0.321 N 
ATOM      3  C   UNL     1       0.795  13.031  -2.329  1.00  0.00    +0.259 C 
ATOM      4  H   UNL     1       1.223  11.494  -1.021  1.00  0.00    +0.170 HD
ENDROOT
BRANCH   2   5
ATOM      5  C   UNL     1       3.048  12.090  -1.743  1.00  0.00    +0.060 A 
ATOM      6  C   UNL     1       3.783  12.905  -0.856  1.00  0.00    +0.071 A 
ATOM      7  C   UNL     1       5.180  12.903  -0.853  1.00  0.00    +0.108 A 
ATOM      8  C   UNL     1       3.750  11.262  -2.624  1.00  0.00    +0.035 A 
ATOM      9  C   UNL     1       5.859  12.071  -1.748  1.00  0.00    +0.271 A 
ATOM     10  C   UNL     1       5.151  11.251  -2.632  1.00  0.00    +0.088 A 
ATOM     11 Cl   UNL     1       2.970  13.943   0.270  1.00  0.00    -0.082 Cl
BRANCH   9  12
ATOM     12  N   UNL     1       7.327  12.058  -1.757  1.00  0.00    +0.062 N 
ATOM     13  O   UNL     1       7.908  12.138  -0.665  1.00  0.00    -0.258 OA
ATOM     14  O   UNL     1       7.896  11.968  -2.853  1.00  0.00    -0.258 OA
ENDBRANCH   9  12
ENDBRANCH   2   5
BRANCH   3  15
ATOM     15  C   UNL     1      -0.669  12.825  -2.123  1.00  0.00    +0.083 A 
ATOM     16  C   UNL     1      -1.153  12.545  -0.835  1.00  0.00    +0.128 A 
ATOM     17  C   UNL     1      -1.581  12.929  -3.184  1.00  0.00    +0.038 A 
ATOM     18  C   UNL     1      -2.512  12.324  -0.614  1.00  0.00    +0.048 A 
ATOM     19  C   UNL     1      -2.942  12.714  -2.953  1.00  0.00    +0.042 A 
ATOM     20  C   UNL     1      -3.410  12.405  -1.678  1.00  0.00    +0.024 A 
ATOM     21 Cl   UNL     1      -4.052  12.837  -4.261  1.00  0.00    -0.084 Cl
BRANCH  16  22
ATOM     22  O   UNL     1      -0.347  12.471   0.270  1.00  0.00    -0.507 OA
ATOM     23  H   UNL     1      -0.905  12.213   1.038  1.00  0.00    +0.293 HD
ENDBRANCH  16  22
ENDBRANCH   3  15
TORSDOF 4
ENDMDL
MODEL 4
REMARK VINA RESULT:    -6.155      3.073      7.892
REMARK INTER + INTRA:          -8.144
REMARK INTER:                  -7.436
REMARK INTRA:                  -0.708
REMARK UNBOUND:                -0.730
REMARK SMILES O=C(Nc1ccc([N+](=O)[O-])cc1Cl)c1cc(Cl)ccc1O
REMARK SMILES IDX 1 1 3 2 2 3 4 5 12 6 11 7 5 8 7 9 6 10 13 11 8 12 9 13 10 14
REMARK SMILES IDX 14 15 20 16 15 17 19 18 16 19 18 20 17 21 21 22
REMARK H PARENT 3 4 21 23
ROOT
ATOM      1  O   UNL     1       1.169  13.865  -2.039  1.00  0.00    -0.269 OA
ATOM      2  N   UNL     1       0.640  12.716  -0.086  1.00  0.00    -0.321 N 
ATOM      3  C   UNL     1       1.492  13.326  -0.984  1.00  0.00    +0.259 C 
ATOM      4  H   UNL     1       1.050  12.162   0.661  1.00  0.00    +0.170 HD
ENDROOT
BRANCH   2   5
ATOM      5  C   UNL     1      -0.775  12.661  -0.133  1.00  0.00    +0.060 A 
ATOM      6  C   UNL     1      -1.504  13.538   0.697  1.00  0.00    +0.071 A 
ATOM      7  C   UNL     1      -2.901  13.543   0.704  1.00  0.00    +0.108 A 
ATOM      8  C   UNL     1      -1.483  11.792  -0.969  1.00  0.00    +0.035 A 
ATOM      9  C   UNL     1      -3.586  12.660  -0.137  1.00  0.00    +0.271 A 
ATOM     10  C   UNL     1      -2.883  11.786  -0.973  1.00  0.00    +0.088 A 
ATOM     11 Cl   UNL     1      -0.684  14.648   1.746  1.00  0.00    -0.082 Cl
BRANCH   9  12
ATOM     12  N   UNL     1      -5.054  12.654  -0.143  1.00  0.00    +0.062 N 
ATOM     13  O   UNL     1      -5.625  12.954  -1.201  1.00  0.00    -0.258 OA
ATOM     14  O   UNL     1      -5.633  12.350   0.909  1.00  0.00    -0.258 OA
ENDBRANCH   9  12
ENDBRANCH   2   5
BRANCH   3  15
ATOM     15  C   UNL     1       2.947  13.266  -0.660  1.00  0.00    +0.083 A 
ATOM     16  C   UNL     1       3.425  13.902   0.498  1.00  0.00    +0.128 A 
ATOM     17  C   UNL     1       3.852  12.567  -1.473  1.00  0.00    +0.038 A 
ATOM     18  C   UNL     1       4.782  13.884   0.815  1.00  0.00    +0.048 A 
ATOM     19  C   UNL     1       5.210  12.548  -1.144  1.00  0.00    +0.042 A 
ATOM     20  C   UNL     1       5.679  13.208  -0.011  1.00  0.00    +0.024 A 
ATOM     21 Cl   UNL     1       6.313  11.693  -2.150  1.00  0.00    -0.084 Cl
BRANCH  16  22
ATOM     22  O   UNL     1       2.612  14.567   1.376  1.00  0.00    -0.507 OA
ATOM     23  H   UNL     1       1.763  14.074   1.440  1.00  0.00    +0.293 HD
ENDBRANCH  16  22
ENDBRANCH   3  15
TORSDOF 4
ENDMDL
MODEL 5
REMARK VINA RESULT:    -6.125      3.740      8.116
REMARK INTER + INTRA:          -8.108
REMARK INTER:                  -7.399
REMARK INTRA:                  -0.709
REMARK UNBOUND:                -0.730
REMARK SMILES O=C(Nc1ccc([N+](=O)[O-])cc1Cl)c1cc(Cl)ccc1O
REMARK SMILES IDX 1 1 3 2 2 3 4 5 12 6 11 7 5 8 7 9 6 10 13 11 8 12 9 13 10 14
REMARK SMILES IDX 14 15 20 16 15 17 19 18 16 19 18 20 17 21 21 22
REMARK H PARENT 3 4 21 23
ROOT
ATOM      1  O   UNL     1       1.296  15.782   0.049  1.00  0.00    -0.269 OA
ATOM      2  N   UNL     1       1.042  13.511   0.487  1.00  0.00    -0.321 N 
ATOM      3  C   UNL     1       1.753  14.687   0.363  1.00  0.00    +0.259 C 
ATOM      4  H   UNL     1       1.563  12.645   0.588  1.00  0.00    +0.170 HD
ENDROOT
BRANCH   2   5
ATOM      5  C   UNL     1      -0.359  13.329   0.375  1.00  0.00    +0.060 A 
ATOM      6  C   UNL     1      -0.852  12.613  -0.736  1.00  0.00    +0.071 A 
ATOM      7  C   UNL     1      -2.220  12.393  -0.912  1.00  0.00    +0.108 A 
ATOM      8  C   UNL     1      -1.274  13.811   1.316  1.00  0.00    +0.035 A 
ATOM      9  C   UNL     1      -3.116  12.890   0.039  1.00  0.00    +0.271 A 
ATOM     10  C   UNL     1      -2.648  13.597   1.152  1.00  0.00    +0.088 A 
ATOM     11 Cl   UNL     1       0.233  11.978  -1.930  1.00  0.00    -0.082 Cl
BRANCH   9  12
ATOM     12  N   UNL     1      -4.556  12.665  -0.131  1.00  0.00    +0.062 N 
ATOM     13  O   UNL     1      -5.198  12.282   0.858  1.00  0.00    -0.258 OA
ATOM     14  O   UNL     1      -5.043  12.872  -1.251  1.00  0.00    -0.258 OA
ENDBRANCH   9  12
ENDBRANCH   2   5
BRANCH   3  15
ATOM     15  C   UNL     1       3.227  14.593   0.577  1.00  0.00    +0.083 A 
ATOM     16  C   UNL     1       3.859  15.500   1.444  1.00  0.00    +0.128 A 
ATOM     17  C   UNL     1       3.998  13.602  -0.049  1.00  0.00    +0.038 A 
ATOM     18  C   UNL     1       5.238  15.453   1.645  1.00  0.00    +0.048 A 
ATOM     19  C   UNL     1       5.378  13.557   0.165  1.00  0.00    +0.042 A 
ATOM     20  C   UNL     1       6.001  14.480   1.001  1.00  0.00    +0.024 A 
ATOM     21 Cl   UNL     1       6.316  12.342  -0.612  1.00  0.00    -0.084 Cl
BRANCH  16  22
ATOM     22  O   UNL     1       3.184  16.470   2.135  1.00  0.00    -0.507 OA
ATOM     23  H   UNL     1       3.584  17.340   1.908  1.00  0.00    +0.293 HD
ENDBRANCH  16  22
ENDBRANCH   3  15
TORSDOF 4
ENDMDL
MODEL 6
REMARK VINA RESULT:    -6.086      3.696      7.545
REMARK INTER + INTRA:          -8.061
REMARK INTER:                  -7.370
REMARK INTRA:                  -0.690
REMARK UNBOUND:                -0.730
REMARK SMILES O=C(Nc1ccc([N+](=O)[O-])cc1Cl)c1cc(Cl)ccc1O
REMARK SMILES IDX 1 1 3 2 2 3 4 5 12 6 11 7 5 8 7 9 6 10 13 11 8 12 9 13 10 14
REMARK SMILES IDX 14 15 20 16 15 17 19 18 16 19 18 20 17 21 21 22
REMARK H PARENT 3 4 21 23
ROOT
ATOM      1  O   UNL     1       1.986  16.177  -0.530  1.00  0.00    -0.269 OA
ATOM      2  N   UNL     1       2.062  14.066   0.445  1.00  0.00    -0.321 N 
ATOM      3  C   UNL     1       2.519  15.344   0.197  1.00  0.00    +0.259 C 
ATOM      4  H   UNL     1       2.681  13.422   0.928  1.00  0.00    +0.170 HD
ENDROOT
BRANCH   2   5
ATOM      5  C   UNL     1       0.851  13.477   0.003  1.00  0.00    +0.060 A 
ATOM      6  C   UNL     1       0.876  12.711  -1.181  1.00  0.00    +0.071 A 
ATOM      7  C   UNL     1      -0.278  12.099  -1.677  1.00  0.00    +0.108 A 
ATOM      8  C   UNL     1      -0.361  13.607   0.687  1.00  0.00    +0.035 A 
ATOM      9  C   UNL     1      -1.479  12.248  -0.978  1.00  0.00    +0.271 A 
ATOM     10  C   UNL     1      -1.526  12.999   0.202  1.00  0.00    +0.088 A 
ATOM     11 Cl   UNL     1       2.351  12.501  -2.068  1.00  0.00    -0.082 Cl
BRANCH   9  12
ATOM     12  N   UNL     1      -2.700  11.610  -1.485  1.00  0.00    +0.062 N 
ATOM     13  O   UNL     1      -3.786  12.021  -1.051  1.00  0.00    -0.258 OA
ATOM     14  O   UNL     1      -2.572  10.699  -2.315  1.00  0.00    -0.258 OA
ENDBRANCH   9  12
ENDBRANCH   2   5
BRANCH   3  15
ATOM     15  C   UNL     1       3.818  15.716   0.831  1.00  0.00    +0.083 A 
ATOM     16  C   UNL     1       4.731  16.512   0.121  1.00  0.00    +0.128 A 
ATOM     17  C   UNL     1       4.141  15.309   2.134  1.00  0.00    +0.038 A 
ATOM     18  C   UNL     1       5.963  16.856   0.676  1.00  0.00    +0.048 A 
ATOM     19  C   UNL     1       5.374  15.665   2.687  1.00  0.00    +0.042 A 
ATOM     20  C   UNL     1       6.287  16.428   1.963  1.00  0.00    +0.024 A 
ATOM     21 Cl   UNL     1       5.765  15.156   4.283  1.00  0.00    -0.084 Cl
BRANCH  16  22
ATOM     22  O   UNL     1       4.484  16.996  -1.137  1.00  0.00    -0.507 OA
ATOM     23  H   UNL     1       3.546  17.291  -1.171  1.00  0.00    +0.293 HD
ENDBRANCH  16  22
ENDBRANCH   3  15
TORSDOF 4
ENDMDL
MODEL 7
REMARK VINA RESULT:    -6.003      3.047      7.809
REMARK INTER + INTRA:          -7.961
REMARK INTER:                  -7.237
REMARK INTRA:                  -0.724
REMARK UNBOUND:                -0.730
REMARK SMILES O=C(Nc1ccc([N+](=O)[O-])cc1Cl)c1cc(Cl)ccc1O
REMARK SMILES IDX 1 1 3 2 2 3 4 5 12 6 11 7 5 8 7 9 6 10 13 11 8 12 9 13 10 14
REMARK SMILES IDX 14 15 20 16 15 17 19 18 16 19 18 20 17 21 21 22
REMARK H PARENT 3 4 21 23
ROOT
ATOM      1  O   UNL     1       0.821  13.782  -1.856  1.00  0.00    -0.269 OA
ATOM      2  N   UNL     1       0.373  12.755   0.183  1.00  0.00    -0.321 N 
ATOM      3  C   UNL     1       1.189  13.284  -0.796  1.00  0.00    +0.259 C 
ATOM      4  H   UNL     1       0.808  12.224   0.932  1.00  0.00    +0.170 HD
ENDROOT
BRANCH   2   5
ATOM      5  C   UNL     1      -1.043  12.755   0.225  1.00  0.00    +0.060 A 
ATOM      6  C   UNL     1      -1.690  13.815   0.894  1.00  0.00    +0.071 A 
ATOM      7  C   UNL     1      -3.083  13.883   0.975  1.00  0.00    +0.108 A 
ATOM      8  C   UNL     1      -1.829  11.765  -0.373  1.00  0.00    +0.035 A 
ATOM      9  C   UNL     1      -3.848  12.878   0.373  1.00  0.00    +0.271 A 
ATOM     10  C   UNL     1      -3.227  11.821  -0.300  1.00  0.00    +0.088 A 
ATOM     11 Cl   UNL     1      -0.771  15.079   1.645  1.00  0.00    -0.082 Cl
BRANCH   9  12
ATOM     12  N   UNL     1      -5.312  12.936   0.448  1.00  0.00    +0.062 N 
ATOM     13  O   UNL     1      -5.822  13.171   1.553  1.00  0.00    -0.258 OA
ATOM     14  O   UNL     1      -5.951  12.747  -0.596  1.00  0.00    -0.258 OA
ENDBRANCH   9  12
ENDBRANCH   2   5
BRANCH   3  15
ATOM     15  C   UNL     1       2.659  13.183  -0.558  1.00  0.00    +0.083 A 
ATOM     16  C   UNL     1       3.424  12.291  -1.328  1.00  0.00    +0.128 A 
ATOM     17  C   UNL     1       3.303  13.977   0.402  1.00  0.00    +0.038 A 
ATOM     18  C   UNL     1       4.795  12.156  -1.113  1.00  0.00    +0.048 A 
ATOM     19  C   UNL     1       4.679  13.841   0.606  1.00  0.00    +0.042 A 
ATOM     20  C   UNL     1       5.424  12.930  -0.140  1.00  0.00    +0.024 A 
ATOM     21 Cl   UNL     1       5.460  14.814   1.790  1.00  0.00    -0.084 Cl
BRANCH  16  22
ATOM     22  O   UNL     1       2.892  11.510  -2.319  1.00  0.00    -0.507 OA
ATOM     23  H   UNL     1       2.716  12.085  -3.099  1.00  0.00    +0.293 HD
ENDBRANCH  16  22
ENDBRANCH   3  15
TORSDOF 4
ENDMDL
MODEL 8
REMARK VINA RESULT:    -5.978      1.688      2.571
REMARK INTER + INTRA:          -7.931
REMARK INTER:                  -7.414
REMARK INTRA:                  -0.517
REMARK UNBOUND:                -0.730
REMARK SMILES O=C(Nc1ccc([N+](=O)[O-])cc1Cl)c1cc(Cl)ccc1O
REMARK SMILES IDX 1 1 3 2 2 3 4 5 12 6 11 7 5 8 7 9 6 10 13 11 8 12 9 13 10 14
REMARK SMILES IDX 14 15 20 16 15 17 19 18 16 19 18 20 17 21 21 22
REMARK H PARENT 3 4 21 23
ROOT
ATOM      1  O   UNL     1       0.195  13.284  -2.125  1.00  0.00    -0.269 OA
ATOM      2  N   UNL     1       1.636  12.847  -0.351  1.00  0.00    -0.321 N 
ATOM      3  C   UNL     1       0.426  13.182  -0.924  1.00  0.00    +0.259 C 
ATOM      4  H   UNL     1       1.738  12.961   0.652  1.00  0.00    +0.170 HD
ENDROOT
BRANCH   2   5
ATOM      5  C   UNL     1       2.830  12.461  -1.010  1.00  0.00    +0.060 A 
ATOM      6  C   UNL     1       4.048  13.010  -0.558  1.00  0.00    +0.071 A 
ATOM      7  C   UNL     1       5.265  12.675  -1.157  1.00  0.00    +0.108 A 
ATOM      8  C   UNL     1       2.861  11.556  -2.076  1.00  0.00    +0.035 A 
ATOM      9  C   UNL     1       5.270  11.773  -2.225  1.00  0.00    +0.271 A 
ATOM     10  C   UNL     1       4.074  11.212  -2.686  1.00  0.00    +0.088 A 
ATOM     11 Cl   UNL     1       4.077  14.127   0.767  1.00  0.00    -0.082 Cl
BRANCH   9  12
ATOM     12  N   UNL     1       6.540  11.410  -2.864  1.00  0.00    +0.062 N 
ATOM     13  O   UNL     1       7.431  10.935  -2.144  1.00  0.00    -0.258 OA
ATOM     14  O   UNL     1       6.646  11.599  -4.084  1.00  0.00    -0.258 OA
ENDBRANCH   9  12
ENDBRANCH   2   5
BRANCH   3  15
ATOM     15  C   UNL     1      -0.684  13.505   0.020  1.00  0.00    +0.083 A 
ATOM     16  C   UNL     1      -0.443  14.369   1.101  1.00  0.00    +0.128 A 
ATOM     17  C   UNL     1      -1.975  12.987  -0.161  1.00  0.00    +0.038 A 
ATOM     18  C   UNL     1      -1.453  14.671   2.013  1.00  0.00    +0.048 A 
ATOM     19  C   UNL     1      -2.984  13.301   0.753  1.00  0.00    +0.042 A 
ATOM     20  C   UNL     1      -2.727  14.132   1.841  1.00  0.00    +0.024 A 
ATOM     21 Cl   UNL     1      -4.563  12.656   0.528  1.00  0.00    -0.084 Cl
BRANCH  16  22
ATOM     22  O   UNL     1       0.770  14.960   1.331  1.00  0.00    -0.507 OA
ATOM     23  H   UNL     1       1.105  14.642   2.200  1.00  0.00    +0.293 HD
ENDBRANCH  16  22
ENDBRANCH   3  15
TORSDOF 4
ENDMDL
MODEL 9
REMARK VINA RESULT:    -5.942      3.602      4.343
REMARK INTER + INTRA:          -7.887
REMARK INTER:                  -7.140
REMARK INTRA:                  -0.747
REMARK UNBOUND:                -0.730
REMARK SMILES O=C(Nc1ccc([N+](=O)[O-])cc1Cl)c1cc(Cl)ccc1O
REMARK SMILES IDX 1 1 3 2 2 3 4 5 12 6 11 7 5 8 7 9 6 10 13 11 8 12 9 13 10 14
REMARK SMILES IDX 14 15 20 16 15 17 19 18 16 19 18 20 17 21 21 22
REMARK H PARENT 3 4 21 23
ROOT
ATOM      1  O   UNL     1       1.718  14.657  -1.233  1.00  0.00    -0.269 OA
ATOM      2  N   UNL     1       2.068  14.698   1.067  1.00  0.00    -0.321 N 
ATOM      3  C   UNL     1       1.358  14.421  -0.084  1.00  0.00    +0.259 C 
ATOM      4  H   UNL     1       1.589  14.609   1.958  1.00  0.00    +0.170 HD
ENDROOT
BRANCH   2   5
ATOM      5  C   UNL     1       3.382  15.218   1.171  1.00  0.00    +0.060 A 
ATOM      6  C   UNL     1       3.536  16.608   1.356  1.00  0.00    +0.071 A 
ATOM      7  C   UNL     1       4.800  17.192   1.469  1.00  0.00    +0.108 A 
ATOM      8  C   UNL     1       4.530  14.422   1.112  1.00  0.00    +0.035 A 
ATOM      9  C   UNL     1       5.933  16.376   1.401  1.00  0.00    +0.271 A 
ATOM     10  C   UNL     1       5.803  14.994   1.224  1.00  0.00    +0.088 A 
ATOM     11 Cl   UNL     1       2.151  17.647   1.450  1.00  0.00    -0.082 Cl
BRANCH   9  12
ATOM     12  N   UNL     1       7.268  16.974   1.519  1.00  0.00    +0.062 N 
ATOM     13  O   UNL     1       8.223  16.347   1.039  1.00  0.00    -0.258 OA
ATOM     14  O   UNL     1       7.361  18.069   2.091  1.00  0.00    -0.258 OA
ENDBRANCH   9  12
ENDBRANCH   2   5
BRANCH   3  15
ATOM     15  C   UNL     1      -0.000  13.832   0.104  1.00  0.00    +0.083 A 
ATOM     16  C   UNL     1      -0.889  14.420   1.019  1.00  0.00    +0.128 A 
ATOM     17  C   UNL     1      -0.424  12.715  -0.632  1.00  0.00    +0.038 A 
ATOM     18  C   UNL     1      -2.155  13.878   1.234  1.00  0.00    +0.048 A 
ATOM     19  C   UNL     1      -1.698  12.183  -0.417  1.00  0.00    +0.042 A 
ATOM     20  C   UNL     1      -2.560  12.753   0.517  1.00  0.00    +0.024 A 
ATOM     21 Cl   UNL     1      -2.206  10.810  -1.319  1.00  0.00    -0.084 Cl
BRANCH  16  22
ATOM     22  O   UNL     1      -0.583  15.538   1.748  1.00  0.00    -0.507 OA
ATOM     23  H   UNL     1      -0.345  16.256   1.118  1.00  0.00    +0.293 HD
ENDBRANCH  16  22
ENDBRANCH   3  15
TORSDOF 4
ENDMDL
