MODEL 1
REMARK VINA RESULT:    -6.035      0.000      0.000
REMARK INTER + INTRA:          -8.021
REMARK INTER:                  -7.270
REMARK INTRA:                  -0.751
REMARK UNBOUND:                -0.751
REMARK SMILES O=C(Nc1ccc([N+](=O)[O-])cc1Cl)c1cc(Cl)ccc1O
REMARK SMILES IDX 1 1 3 2 2 3 4 5 12 6 11 7 5 8 7 9 6 10 13 11 8 12 9 13 10 14
REMARK SMILES IDX 14 15 20 16 15 17 19 18 16 19 18 20 17 21 21 22
REMARK H PARENT 3 4 21 23
ROOT
ATOM      1  O   UNL     1      11.720  50.178  -4.083  1.00  0.00    -0.269 OA
ATOM      2  N   UNL     1      11.738  50.167  -1.756  1.00  0.00    -0.321 N 
ATOM      3  C   UNL     1      11.868  50.743  -3.003  1.00  0.00    +0.259 C 
ATOM      4  H   UNL     1      12.051  50.698  -0.949  1.00  0.00    +0.170 HD
ENDROOT
BRANCH   2   5
ATOM      5  C   UNL     1      11.319  48.848  -1.450  1.00  0.00    +0.060 A 
ATOM      6  C   UNL     1      12.306  47.847  -1.327  1.00  0.00    +0.071 A 
ATOM      7  C   UNL     1      11.968  46.526  -1.025  1.00  0.00    +0.108 A 
ATOM      8  C   UNL     1       9.981  48.494  -1.250  1.00  0.00    +0.035 A 
ATOM      9  C   UNL     1      10.623  46.194  -0.835  1.00  0.00    +0.271 A 
ATOM     10  C   UNL     1       9.630  47.173  -0.946  1.00  0.00    +0.088 A 
ATOM     11 Cl   UNL     1      13.982  48.226  -1.550  1.00  0.00    -0.082 Cl
BRANCH   9  12
ATOM     12  N   UNL     1      10.253  44.811  -0.516  1.00  0.00    +0.062 N 
ATOM     13  O   UNL     1       9.060  44.495  -0.628  1.00  0.00    -0.258 OA
ATOM     14  O   UNL     1      11.154  44.042  -0.153  1.00  0.00    -0.258 OA
ENDBRANCH   9  12
ENDBRANCH   2   5
BRANCH   3  15
ATOM     15  C   UNL     1      12.287  52.175  -3.029  1.00  0.00    +0.083 A 
ATOM     16  C   UNL     1      11.556  53.096  -3.798  1.00  0.00    +0.128 A 
ATOM     17  C   UNL     1      13.383  52.632  -2.282  1.00  0.00    +0.038 A 
ATOM     18  C   UNL     1      11.938  54.435  -3.861  1.00  0.00    +0.048 A 
ATOM     19  C   UNL     1      13.753  53.978  -2.345  1.00  0.00    +0.042 A 
ATOM     20  C   UNL     1      13.042  54.878  -3.135  1.00  0.00    +0.024 A 
ATOM     21 Cl   UNL     1      15.102  54.529  -1.430  1.00  0.00    -0.084 Cl
BRANCH  16  22
ATOM     22  O   UNL     1      10.446  52.753  -4.522  1.00  0.00    -0.507 OA
ATOM     23  H   UNL     1      10.382  51.771  -4.536  1.00  0.00    +0.293 HD
ENDBRANCH  16  22
ENDBRANCH   3  15
TORSDOF 4
ENDMDL
MODEL 2
REMARK VINA RESULT:    -5.953      9.791     10.552
REMARK INTER + INTRA:          -7.922
REMARK INTER:                  -7.440
REMARK INTRA:                  -0.482
REMARK UNBOUND:                -0.751
REMARK SMILES O=C(Nc1ccc([N+](=O)[O-])cc1Cl)c1cc(Cl)ccc1O
REMARK SMILES IDX 1 1 3 2 2 3 4 5 12 6 11 7 5 8 7 9 6 10 13 11 8 12 9 13 10 14
REMARK SMILES IDX 14 15 20 16 15 17 19 18 16 19 18 20 17 21 21 22
REMARK H PARENT 3 4 21 23
ROOT
ATOM      1  O   UNL     1      18.411  52.843   4.388  1.00  0.00    -0.269 OA
ATOM      2  N   UNL     1      17.023  52.031   6.070  1.00  0.00    -0.321 N 
ATOM      3  C   UNL     1      17.383  52.897   5.057  1.00  0.00    +0.259 C 
ATOM      4  H   UNL     1      16.232  52.282   6.655  1.00  0.00    +0.170 HD
ENDROOT
BRANCH   2   5
ATOM      5  C   UNL     1      17.698  50.857   6.488  1.00  0.00    +0.060 A 
ATOM      6  C   UNL     1      18.728  50.985   7.443  1.00  0.00    +0.071 A 
ATOM      7  C   UNL     1      19.436  49.873   7.905  1.00  0.00    +0.108 A 
ATOM      8  C   UNL     1      17.385  49.580   6.012  1.00  0.00    +0.035 A 
ATOM      9  C   UNL     1      19.110  48.607   7.409  1.00  0.00    +0.271 A 
ATOM     10  C   UNL     1      18.087  48.456   6.466  1.00  0.00    +0.088 A 
ATOM     11 Cl   UNL     1      19.153  52.540   8.082  1.00  0.00    -0.082 Cl
BRANCH   9  12
ATOM     12  N   UNL     1      19.844  47.429   7.885  1.00  0.00    +0.062 N 
ATOM     13  O   UNL     1      20.726  46.966   7.148  1.00  0.00    -0.258 OA
ATOM     14  O   UNL     1      19.537  46.968   8.994  1.00  0.00    -0.258 OA
ENDBRANCH   9  12
ENDBRANCH   2   5
BRANCH   3  15
ATOM     15  C   UNL     1      16.454  54.036   4.801  1.00  0.00    +0.083 A 
ATOM     16  C   UNL     1      15.079  53.874   5.035  1.00  0.00    +0.128 A 
ATOM     17  C   UNL     1      16.925  55.280   4.354  1.00  0.00    +0.038 A 
ATOM     18  C   UNL     1      14.183  54.912   4.783  1.00  0.00    +0.048 A 
ATOM     19  C   UNL     1      16.022  56.318   4.112  1.00  0.00    +0.042 A 
ATOM     20  C   UNL     1      14.656  56.138   4.315  1.00  0.00    +0.024 A 
ATOM     21 Cl   UNL     1      16.607  57.838   3.558  1.00  0.00    -0.084 Cl
BRANCH  16  22
ATOM     22  O   UNL     1      14.533  52.714   5.516  1.00  0.00    -0.507 OA
ATOM     23  H   UNL     1      13.982  52.318   4.803  1.00  0.00    +0.293 HD
ENDBRANCH  16  22
ENDBRANCH   3  15
TORSDOF 4
ENDMDL
MODEL 3
REMARK VINA RESULT:    -5.941      1.368      1.943
REMARK INTER + INTRA:          -7.907
REMARK INTER:                  -7.190
REMARK INTRA:                  -0.717
REMARK UNBOUND:                -0.751
REMARK SMILES O=C(Nc1ccc([N+](=O)[O-])cc1Cl)c1cc(Cl)ccc1O
REMARK SMILES IDX 1 1 3 2 2 3 4 5 12 6 11 7 5 8 7 9 6 10 13 11 8 12 9 13 10 14
REMARK SMILES IDX 14 15 20 16 15 17 19 18 16 19 18 20 17 21 21 22
REMARK H PARENT 3 4 21 23
ROOT
ATOM      1  O   UNL     1      11.435  50.811  -3.547  1.00  0.00    -0.269 OA
ATOM      2  N   UNL     1      12.197  50.164  -1.446  1.00  0.00    -0.321 N 
ATOM      3  C   UNL     1      12.026  51.043  -2.496  1.00  0.00    +0.259 C 
ATOM      4  H   UNL     1      12.847  50.421  -0.709  1.00  0.00    +0.170 HD
ENDROOT
BRANCH   2   5
ATOM      5  C   UNL     1      11.659  48.860  -1.310  1.00  0.00    +0.060 A 
ATOM      6  C   UNL     1      12.511  47.760  -1.541  1.00  0.00    +0.071 A 
ATOM      7  C   UNL     1      12.052  46.446  -1.423  1.00  0.00    +0.108 A 
ATOM      8  C   UNL     1      10.332  48.611  -0.945  1.00  0.00    +0.035 A 
ATOM      9  C   UNL     1      10.720  46.222  -1.064  1.00  0.00    +0.271 A 
ATOM     10  C   UNL     1       9.859  47.298  -0.824  1.00  0.00    +0.088 A 
ATOM     11 Cl   UNL     1      14.170  48.004  -1.982  1.00  0.00    -0.082 Cl
BRANCH   9  12
ATOM     12  N   UNL     1      10.223  44.847  -0.935  1.00  0.00    +0.062 N 
ATOM     13  O   UNL     1      10.882  44.061  -0.239  1.00  0.00    -0.258 OA
ATOM     14  O   UNL     1       9.175  44.555  -1.528  1.00  0.00    -0.258 OA
ENDBRANCH   9  12
ENDBRANCH   2   5
BRANCH   3  15
ATOM     15  C   UNL     1      12.676  52.379  -2.353  1.00  0.00    +0.083 A 
ATOM     16  C   UNL     1      14.074  52.481  -2.442  1.00  0.00    +0.128 A 
ATOM     17  C   UNL     1      11.921  53.545  -2.155  1.00  0.00    +0.038 A 
ATOM     18  C   UNL     1      14.712  53.710  -2.289  1.00  0.00    +0.048 A 
ATOM     19  C   UNL     1      12.567  54.774  -2.010  1.00  0.00    +0.042 A 
ATOM     20  C   UNL     1      13.956  54.861  -2.068  1.00  0.00    +0.024 A 
ATOM     21 Cl   UNL     1      11.634  56.198  -1.762  1.00  0.00    -0.084 Cl
BRANCH  16  22
ATOM     22  O   UNL     1      14.889  51.407  -2.681  1.00  0.00    -0.507 OA
ATOM     23  H   UNL     1      14.523  50.633  -2.196  1.00  0.00    +0.293 HD
ENDBRANCH  16  22
ENDBRANCH   3  15
TORSDOF 4
ENDMDL
MODEL 4
REMARK VINA RESULT:    -5.731      9.054      9.370
REMARK INTER + INTRA:          -7.654
REMARK INTER:                  -6.943
REMARK INTRA:                  -0.711
REMARK UNBOUND:                -0.751
REMARK SMILES O=C(Nc1ccc([N+](=O)[O-])cc1Cl)c1cc(Cl)ccc1O
REMARK SMILES IDX 1 1 3 2 2 3 4 5 12 6 11 7 5 8 7 9 6 10 13 11 8 12 9 13 10 14
REMARK SMILES IDX 14 15 20 16 15 17 19 18 16 19 18 20 17 21 21 22
REMARK H PARENT 3 4 21 23
ROOT
ATOM      1  O   UNL     1      18.013  50.972   6.662  1.00  0.00    -0.269 OA
ATOM      2  N   UNL     1      16.900  50.101   4.813  1.00  0.00    -0.321 N 
ATOM      3  C   UNL     1      17.395  51.113   5.610  1.00  0.00    +0.259 C 
ATOM      4  H   UNL     1      16.265  50.352   4.062  1.00  0.00    +0.170 HD
ENDROOT
BRANCH   2   5
ATOM      5  C   UNL     1      17.073  48.704   4.978  1.00  0.00    +0.060 A 
ATOM      6  C   UNL     1      18.092  48.067   4.238  1.00  0.00    +0.071 A 
ATOM      7  C   UNL     1      18.323  46.694   4.349  1.00  0.00    +0.108 A 
ATOM      8  C   UNL     1      16.296  47.931   5.845  1.00  0.00    +0.035 A 
ATOM      9  C   UNL     1      17.528  45.940   5.218  1.00  0.00    +0.271 A 
ATOM     10  C   UNL     1      16.517  46.553   5.966  1.00  0.00    +0.088 A 
ATOM     11 Cl   UNL     1      19.098  48.974   3.156  1.00  0.00    -0.082 Cl
BRANCH   9  12
ATOM     12  N   UNL     1      17.759  44.497   5.348  1.00  0.00    +0.062 N 
ATOM     13  O   UNL     1      18.692  44.004   4.697  1.00  0.00    -0.258 OA
ATOM     14  O   UNL     1      17.010  43.858   6.099  1.00  0.00    -0.258 OA
ENDBRANCH   9  12
ENDBRANCH   2   5
BRANCH   3  15
ATOM     15  C   UNL     1      17.094  52.507   5.172  1.00  0.00    +0.083 A 
ATOM     16  C   UNL     1      18.148  53.360   4.806  1.00  0.00    +0.128 A 
ATOM     17  C   UNL     1      15.776  52.982   5.091  1.00  0.00    +0.038 A 
ATOM     18  C   UNL     1      17.900  54.676   4.416  1.00  0.00    +0.048 A 
ATOM     19  C   UNL     1      15.536  54.299   4.691  1.00  0.00    +0.042 A 
ATOM     20  C   UNL     1      16.590  55.148   4.361  1.00  0.00    +0.024 A 
ATOM     21 Cl   UNL     1      13.918  54.875   4.600  1.00  0.00    -0.084 Cl
BRANCH  16  22
ATOM     22  O   UNL     1      19.461  52.972   4.808  1.00  0.00    -0.507 OA
ATOM     23  H   UNL     1      19.977  53.643   5.310  1.00  0.00    +0.293 HD
ENDBRANCH  16  22
ENDBRANCH   3  15
TORSDOF 4
ENDMDL
MODEL 5
REMARK VINA RESULT:    -5.694      9.441     11.688
REMARK INTER + INTRA:          -7.609
REMARK INTER:                  -6.913
REMARK INTRA:                  -0.697
REMARK UNBOUND:                -0.751
REMARK SMILES O=C(Nc1ccc([N+](=O)[O-])cc1Cl)c1cc(Cl)ccc1O
REMARK SMILES IDX 1 1 3 2 2 3 4 5 12 6 11 7 5 8 7 9 6 10 13 11 8 12 9 13 10 14
REMARK SMILES IDX 14 15 20 16 15 17 19 18 16 19 18 20 17 21 21 22
REMARK H PARENT 3 4 21 23
ROOT
ATOM      1  O   UNL     1      16.884  50.774   4.608  1.00  0.00    -0.269 OA
ATOM      2  N   UNL     1      17.090  52.686   5.918  1.00  0.00    -0.321 N 
ATOM      3  C   UNL     1      17.399  51.398   5.532  1.00  0.00    +0.259 C 
ATOM      4  H   UNL     1      17.466  53.025   6.799  1.00  0.00    +0.170 HD
ENDROOT
BRANCH   2   5
ATOM      5  C   UNL     1      16.199  53.590   5.289  1.00  0.00    +0.060 A 
ATOM      6  C   UNL     1      16.742  54.583   4.446  1.00  0.00    +0.071 A 
ATOM      7  C   UNL     1      15.925  55.508   3.790  1.00  0.00    +0.108 A 
ATOM      8  C   UNL     1      14.811  53.539   5.450  1.00  0.00    +0.035 A 
ATOM      9  C   UNL     1      14.541  55.440   3.972  1.00  0.00    +0.271 A 
ATOM     10  C   UNL     1      13.981  54.460   4.798  1.00  0.00    +0.088 A 
ATOM     11 Cl   UNL     1      18.453  54.690   4.194  1.00  0.00    -0.082 Cl
BRANCH   9  12
ATOM     12  N   UNL     1      13.669  56.403   3.288  1.00  0.00    +0.062 N 
ATOM     13  O   UNL     1      12.977  57.151   3.993  1.00  0.00    -0.258 OA
ATOM     14  O   UNL     1      13.678  56.410   2.050  1.00  0.00    -0.258 OA
ENDBRANCH   9  12
ENDBRANCH   2   5
BRANCH   3  15
ATOM     15  C   UNL     1      18.414  50.684   6.361  1.00  0.00    +0.083 A 
ATOM     16  C   UNL     1      18.245  49.317   6.636  1.00  0.00    +0.128 A 
ATOM     17  C   UNL     1      19.551  51.342   6.855  1.00  0.00    +0.038 A 
ATOM     18  C   UNL     1      19.163  48.629   7.428  1.00  0.00    +0.048 A 
ATOM     19  C   UNL     1      20.470  50.642   7.640  1.00  0.00    +0.042 A 
ATOM     20  C   UNL     1      20.279  49.295   7.935  1.00  0.00    +0.024 A 
ATOM     21 Cl   UNL     1      21.859  51.458   8.247  1.00  0.00    -0.084 Cl
BRANCH  16  22
ATOM     22  O   UNL     1      17.194  48.581   6.159  1.00  0.00    -0.507 OA
ATOM     23  H   UNL     1      16.888  48.995   5.320  1.00  0.00    +0.293 HD
ENDBRANCH  16  22
ENDBRANCH   3  15
TORSDOF 4
ENDMDL
MODEL 6
REMARK VINA RESULT:    -5.673      4.407      5.165
REMARK INTER + INTRA:          -7.584
REMARK INTER:                  -6.885
REMARK INTRA:                  -0.699
REMARK UNBOUND:                -0.751
REMARK SMILES O=C(Nc1ccc([N+](=O)[O-])cc1Cl)c1cc(Cl)ccc1O
REMARK SMILES IDX 1 1 3 2 2 3 4 5 12 6 11 7 5 8 7 9 6 10 13 11 8 12 9 13 10 14
REMARK SMILES IDX 14 15 20 16 15 17 19 18 16 19 18 20 17 21 21 22
REMARK H PARENT 3 4 21 23
ROOT
ATOM      1  O   UNL     1       6.731  49.180  -4.568  1.00  0.00    -0.269 OA
ATOM      2  N   UNL     1       9.048  48.981  -4.661  1.00  0.00    -0.321 N 
ATOM      3  C   UNL     1       7.826  49.526  -5.003  1.00  0.00    +0.259 C 
ATOM      4  H   UNL     1       9.858  49.241  -5.215  1.00  0.00    +0.170 HD
ENDROOT
BRANCH   2   5
ATOM      5  C   UNL     1       9.312  47.990  -3.684  1.00  0.00    +0.060 A 
ATOM      6  C   UNL     1       9.954  48.384  -2.490  1.00  0.00    +0.071 A 
ATOM      7  C   UNL     1      10.245  47.463  -1.481  1.00  0.00    +0.108 A 
ATOM      8  C   UNL     1       8.958  46.646  -3.837  1.00  0.00    +0.035 A 
ATOM      9  C   UNL     1       9.886  46.124  -1.660  1.00  0.00    +0.271 A 
ATOM     10  C   UNL     1       9.244  45.712  -2.833  1.00  0.00    +0.088 A 
ATOM     11 Cl   UNL     1      10.406  50.038  -2.235  1.00  0.00    -0.082 Cl
BRANCH   9  12
ATOM     12  N   UNL     1      10.184  45.144  -0.609  1.00  0.00    +0.062 N 
ATOM     13  O   UNL     1      11.247  45.277   0.014  1.00  0.00    -0.258 OA
ATOM     14  O   UNL     1       9.356  44.245  -0.407  1.00  0.00    -0.258 OA
ENDBRANCH   9  12
ENDBRANCH   2   5
BRANCH   3  15
ATOM     15  C   UNL     1       7.847  50.595  -6.043  1.00  0.00    +0.083 A 
ATOM     16  C   UNL     1       8.489  51.814  -5.770  1.00  0.00    +0.128 A 
ATOM     17  C   UNL     1       7.261  50.403  -7.304  1.00  0.00    +0.038 A 
ATOM     18  C   UNL     1       8.505  52.841  -6.712  1.00  0.00    +0.048 A 
ATOM     19  C   UNL     1       7.288  51.435  -8.246  1.00  0.00    +0.042 A 
ATOM     20  C   UNL     1       7.899  52.652  -7.954  1.00  0.00    +0.024 A 
ATOM     21 Cl   UNL     1       6.562  51.194  -9.786  1.00  0.00    -0.084 Cl
BRANCH  16  22
ATOM     22  O   UNL     1       9.129  52.075  -4.587  1.00  0.00    -0.507 OA
ATOM     23  H   UNL     1       8.715  51.520  -3.888  1.00  0.00    +0.293 HD
ENDBRANCH  16  22
ENDBRANCH   3  15
TORSDOF 4
ENDMDL
MODEL 7
REMARK VINA RESULT:    -5.489      2.270      2.709
REMARK INTER + INTRA:          -7.363
REMARK INTER:                  -6.636
REMARK INTRA:                  -0.727
REMARK UNBOUND:                -0.751
REMARK SMILES O=C(Nc1ccc([N+](=O)[O-])cc1Cl)c1cc(Cl)ccc1O
REMARK SMILES IDX 1 1 3 2 2 3 4 5 12 6 11 7 5 8 7 9 6 10 13 11 8 12 9 13 10 14
REMARK SMILES IDX 14 15 20 16 15 17 19 18 16 19 18 20 17 21 21 22
REMARK H PARENT 3 4 21 23
ROOT
ATOM      1  O   UNL     1      11.864  49.574  -4.723  1.00  0.00    -0.269 OA
ATOM      2  N   UNL     1      10.296  49.815  -3.020  1.00  0.00    -0.321 N 
ATOM      3  C   UNL     1      11.023  50.232  -4.118  1.00  0.00    +0.259 C 
ATOM      4  H   UNL     1       9.758  50.510  -2.512  1.00  0.00    +0.170 HD
ENDROOT
BRANCH   2   5
ATOM      5  C   UNL     1      10.291  48.531  -2.421  1.00  0.00    +0.060 A 
ATOM      6  C   UNL     1       9.294  47.615  -2.817  1.00  0.00    +0.071 A 
ATOM      7  C   UNL     1       9.227  46.331  -2.271  1.00  0.00    +0.108 A 
ATOM      8  C   UNL     1      11.230  48.124  -1.469  1.00  0.00    +0.035 A 
ATOM      9  C   UNL     1      10.174  45.949  -1.316  1.00  0.00    +0.271 A 
ATOM     10  C   UNL     1      11.175  46.840  -0.914  1.00  0.00    +0.088 A 
ATOM     11 Cl   UNL     1       8.109  48.055  -4.003  1.00  0.00    -0.082 Cl
BRANCH   9  12
ATOM     12  N   UNL     1      10.118  44.602  -0.734  1.00  0.00    +0.062 N 
ATOM     13  O   UNL     1       9.057  43.972  -0.847  1.00  0.00    -0.258 OA
ATOM     14  O   UNL     1      11.133  44.178  -0.166  1.00  0.00    -0.258 OA
ENDBRANCH   9  12
ENDBRANCH   2   5
BRANCH   3  15
ATOM     15  C   UNL     1      10.797  51.638  -4.564  1.00  0.00    +0.083 A 
ATOM     16  C   UNL     1       9.521  52.027  -5.005  1.00  0.00    +0.128 A 
ATOM     17  C   UNL     1      11.825  52.592  -4.532  1.00  0.00    +0.038 A 
ATOM     18  C   UNL     1       9.285  53.326  -5.451  1.00  0.00    +0.048 A 
ATOM     19  C   UNL     1      11.578  53.894  -4.973  1.00  0.00    +0.042 A 
ATOM     20  C   UNL     1      10.318  54.263  -5.439  1.00  0.00    +0.024 A 
ATOM     21 Cl   UNL     1      12.846  55.056  -4.937  1.00  0.00    -0.084 Cl
BRANCH  16  22
ATOM     22  O   UNL     1       8.445  51.180  -5.027  1.00  0.00    -0.507 OA
ATOM     23  H   UNL     1       8.402  50.719  -4.158  1.00  0.00    +0.293 HD
ENDBRANCH  16  22
ENDBRANCH   3  15
TORSDOF 4
ENDMDL
MODEL 8
REMARK VINA RESULT:    -5.472      6.756      8.709
REMARK INTER + INTRA:          -7.342
REMARK INTER:                  -6.605
REMARK INTRA:                  -0.737
REMARK UNBOUND:                -0.751
REMARK SMILES O=C(Nc1ccc([N+](=O)[O-])cc1Cl)c1cc(Cl)ccc1O
REMARK SMILES IDX 1 1 3 2 2 3 4 5 12 6 11 7 5 8 7 9 6 10 13 11 8 12 9 13 10 14
REMARK SMILES IDX 14 15 20 16 15 17 19 18 16 19 18 20 17 21 21 22
REMARK H PARENT 3 4 21 23
ROOT
ATOM      1  O   UNL     1      13.602  58.033  -0.843  1.00  0.00    -0.269 OA
ATOM      2  N   UNL     1      11.845  56.558  -0.450  1.00  0.00    -0.321 N 
ATOM      3  C   UNL     1      12.878  57.398  -0.082  1.00  0.00    +0.259 C 
ATOM      4  H   UNL     1      11.435  55.964   0.265  1.00  0.00    +0.170 HD
ENDROOT
BRANCH   2   5
ATOM      5  C   UNL     1      11.341  56.323  -1.752  1.00  0.00    +0.060 A 
ATOM      6  C   UNL     1      11.927  55.294  -2.519  1.00  0.00    +0.071 A 
ATOM      7  C   UNL     1      11.481  55.003  -3.810  1.00  0.00    +0.108 A 
ATOM      8  C   UNL     1      10.284  57.050  -2.310  1.00  0.00    +0.035 A 
ATOM      9  C   UNL     1      10.427  55.748  -4.348  1.00  0.00    +0.271 A 
ATOM     10  C   UNL     1       9.827  56.769  -3.604  1.00  0.00    +0.088 A 
ATOM     11 Cl   UNL     1      13.231  54.348  -1.878  1.00  0.00    -0.082 Cl
BRANCH   9  12
ATOM     12  N   UNL     1       9.946  55.453  -5.703  1.00  0.00    +0.062 N 
ATOM     13  O   UNL     1       9.665  54.276  -5.970  1.00  0.00    -0.258 OA
ATOM     14  O   UNL     1       9.850  56.398  -6.499  1.00  0.00    -0.258 OA
ENDBRANCH   9  12
ENDBRANCH   2   5
BRANCH   3  15
ATOM     15  C   UNL     1      13.169  57.486   1.378  1.00  0.00    +0.083 A 
ATOM     16  C   UNL     1      13.150  58.740   2.012  1.00  0.00    +0.128 A 
ATOM     17  C   UNL     1      13.439  56.342   2.144  1.00  0.00    +0.038 A 
ATOM     18  C   UNL     1      13.442  58.858   3.370  1.00  0.00    +0.048 A 
ATOM     19  C   UNL     1      13.722  56.468   3.506  1.00  0.00    +0.042 A 
ATOM     20  C   UNL     1      13.733  57.719   4.120  1.00  0.00    +0.024 A 
ATOM     21 Cl   UNL     1      14.058  55.060   4.436  1.00  0.00    -0.084 Cl
BRANCH  16  22
ATOM     22  O   UNL     1      12.851  59.905   1.359  1.00  0.00    -0.507 OA
ATOM     23  H   UNL     1      11.881  60.052   1.426  1.00  0.00    +0.293 HD
ENDBRANCH  16  22
ENDBRANCH   3  15
TORSDOF 4
ENDMDL
MODEL 9
REMARK VINA RESULT:    -5.429      8.227      9.864
REMARK INTER + INTRA:          -7.290
REMARK INTER:                  -6.596
REMARK INTRA:                  -0.695
REMARK UNBOUND:                -0.751
REMARK SMILES O=C(Nc1ccc([N+](=O)[O-])cc1Cl)c1cc(Cl)ccc1O
REMARK SMILES IDX 1 1 3 2 2 3 4 5 12 6 11 7 5 8 7 9 6 10 13 11 8 12 9 13 10 14
REMARK SMILES IDX 14 15 20 16 15 17 19 18 16 19 18 20 17 21 21 22
REMARK H PARENT 3 4 21 23
ROOT
ATOM      1  O   UNL     1      13.708  56.901  -1.257  1.00  0.00    -0.269 OA
ATOM      2  N   UNL     1      11.534  57.634  -0.867  1.00  0.00    -0.321 N 
ATOM      3  C   UNL     1      12.831  57.324  -0.510  1.00  0.00    +0.259 C 
ATOM      4  H   UNL     1      10.863  57.812  -0.126  1.00  0.00    +0.170 HD
ENDROOT
BRANCH   2   5
ATOM      5  C   UNL     1      10.967  57.624  -2.166  1.00  0.00    +0.060 A 
ATOM      6  C   UNL     1      11.220  58.723  -3.013  1.00  0.00    +0.071 A 
ATOM      7  C   UNL     1      10.697  58.782  -4.307  1.00  0.00    +0.108 A 
ATOM      8  C   UNL     1      10.180  56.575  -2.653  1.00  0.00    +0.035 A 
ATOM      9  C   UNL     1       9.909  57.724  -4.769  1.00  0.00    +0.271 A 
ATOM     10  C   UNL     1       9.649  56.621  -3.948  1.00  0.00    +0.088 A 
ATOM     11 Cl   UNL     1      12.199  60.048  -2.472  1.00  0.00    -0.082 Cl
BRANCH   9  12
ATOM     12  N   UNL     1       9.352  57.770  -6.126  1.00  0.00    +0.062 N 
ATOM     13  O   UNL     1       8.543  58.673  -6.384  1.00  0.00    -0.258 OA
ATOM     14  O   UNL     1       9.724  56.905  -6.931  1.00  0.00    -0.258 OA
ENDBRANCH   9  12
ENDBRANCH   2   5
BRANCH   3  15
ATOM     15  C   UNL     1      13.169  57.465   0.937  1.00  0.00    +0.083 A 
ATOM     16  C   UNL     1      13.051  58.721   1.555  1.00  0.00    +0.128 A 
ATOM     17  C   UNL     1      13.579  56.365   1.705  1.00  0.00    +0.038 A 
ATOM     18  C   UNL     1      13.383  58.890   2.898  1.00  0.00    +0.048 A 
ATOM     19  C   UNL     1      13.902  56.542   3.053  1.00  0.00    +0.042 A 
ATOM     20  C   UNL     1      13.814  57.797   3.650  1.00  0.00    +0.024 A 
ATOM     21 Cl   UNL     1      14.410  55.189   3.986  1.00  0.00    -0.084 Cl
BRANCH  16  22
ATOM     22  O   UNL     1      12.614  59.841   0.900  1.00  0.00    -0.507 OA
ATOM     23  H   UNL     1      13.340  60.154   0.313  1.00  0.00    +0.293 HD
ENDBRANCH  16  22
ENDBRANCH   3  15
TORSDOF 4
ENDMDL
