MODEL 1
REMARK VINA RESULT:    -7.852      0.000      0.000
REMARK INTER + INTRA:         -10.177
REMARK INTER:                  -9.458
REMARK INTRA:                  -0.719
REMARK UNBOUND:                -0.719
REMARK SMILES O=C(Nc1ccc([N+](=O)[O-])cc1Cl)c1cc(Cl)ccc1O
REMARK SMILES IDX 1 1 3 2 2 3 4 5 12 6 11 7 5 8 7 9 6 10 13 11 8 12 9 13 10 14
REMARK SMILES IDX 14 15 20 16 15 17 19 18 16 19 18 20 17 21 21 22
REMARK H PARENT 3 4 21 23
ROOT
ATOM      1  O   UNL     1     -26.253  12.892 -21.895  1.00  0.00    -0.269 OA
ATOM      2  N   UNL     1     -27.088  12.553 -24.040  1.00  0.00    -0.321 N 
ATOM      3  C   UNL     1     -26.969  12.291 -22.690  1.00  0.00    +0.259 C 
ATOM      4  H   UNL     1     -27.583  11.879 -24.616  1.00  0.00    +0.170 HD
ENDROOT
BRANCH   2   5
ATOM      5  C   UNL     1     -26.496  13.611 -24.774  1.00  0.00    +0.060 A 
ATOM      6  C   UNL     1     -27.203  14.827 -24.879  1.00  0.00    +0.071 A 
ATOM      7  C   UNL     1     -26.682  15.914 -25.584  1.00  0.00    +0.108 A 
ATOM      8  C   UNL     1     -25.242  13.514 -25.385  1.00  0.00    +0.035 A 
ATOM      9  C   UNL     1     -25.429  15.791 -26.192  1.00  0.00    +0.271 A 
ATOM     10  C   UNL     1     -24.707  14.597 -26.095  1.00  0.00    +0.088 A 
ATOM     11 Cl   UNL     1     -28.756  15.014 -24.131  1.00  0.00    -0.082 Cl
BRANCH   9  12
ATOM     12  N   UNL     1     -24.867  16.925 -26.935  1.00  0.00    +0.062 N 
ATOM     13  O   UNL     1     -25.588  17.920 -27.097  1.00  0.00    -0.258 OA
ATOM     14  O   UNL     1     -23.706  16.820 -27.356  1.00  0.00    -0.258 OA
ENDBRANCH   9  12
ENDBRANCH   2   5
BRANCH   3  15
ATOM     15  C   UNL     1     -27.746  11.127 -22.172  1.00  0.00    +0.083 A 
ATOM     16  C   UNL     1     -28.513  11.272 -21.004  1.00  0.00    +0.128 A 
ATOM     17  C   UNL     1     -27.749   9.892 -22.838  1.00  0.00    +0.038 A 
ATOM     18  C   UNL     1     -29.230  10.197 -20.482  1.00  0.00    +0.048 A 
ATOM     19  C   UNL     1     -28.477   8.822 -22.312  1.00  0.00    +0.042 A 
ATOM     20  C   UNL     1     -29.209   8.966 -21.136  1.00  0.00    +0.024 A 
ATOM     21 Cl   UNL     1     -28.471   7.310 -23.132  1.00  0.00    -0.084 Cl
BRANCH  16  22
ATOM     22  O   UNL     1     -28.609  12.450 -20.312  1.00  0.00    -0.507 OA
ATOM     23  H   UNL     1     -29.314  12.994 -20.733  1.00  0.00    +0.293 HD
ENDBRANCH  16  22
ENDBRANCH   3  15
TORSDOF 4
ENDMDL
MODEL 2
REMARK VINA RESULT:    -7.763      4.775      8.020
REMARK INTER + INTRA:         -10.070
REMARK INTER:                  -9.352
REMARK INTRA:                  -0.718
REMARK UNBOUND:                -0.719
REMARK SMILES O=C(Nc1ccc([N+](=O)[O-])cc1Cl)c1cc(Cl)ccc1O
REMARK SMILES IDX 1 1 3 2 2 3 4 5 12 6 11 7 5 8 7 9 6 10 13 11 8 12 9 13 10 14
REMARK SMILES IDX 14 15 20 16 15 17 19 18 16 19 18 20 17 21 21 22
REMARK H PARENT 3 4 21 23
ROOT
ATOM      1  O   UNL     1     -31.574  14.134 -26.534  1.00  0.00    -0.269 OA
ATOM      2  N   UNL     1     -29.719  13.720 -25.191  1.00  0.00    -0.321 N 
ATOM      3  C   UNL     1     -30.362  14.020 -26.375  1.00  0.00    +0.259 C 
ATOM      4  H   UNL     1     -28.731  13.489 -25.228  1.00  0.00    +0.170 HD
ENDROOT
BRANCH   2   5
ATOM      5  C   UNL     1     -30.295  13.574 -23.904  1.00  0.00    +0.060 A 
ATOM      6  C   UNL     1     -30.115  14.617 -22.971  1.00  0.00    +0.071 A 
ATOM      7  C   UNL     1     -30.656  14.544 -21.685  1.00  0.00    +0.108 A 
ATOM      8  C   UNL     1     -31.042  12.457 -23.519  1.00  0.00    +0.035 A 
ATOM      9  C   UNL     1     -31.394  13.414 -21.321  1.00  0.00    +0.271 A 
ATOM     10  C   UNL     1     -31.590  12.371 -22.233  1.00  0.00    +0.088 A 
ATOM     11 Cl   UNL     1     -29.210  16.034 -23.392  1.00  0.00    -0.082 Cl
BRANCH   9  12
ATOM     12  N   UNL     1     -31.969  13.323 -19.974  1.00  0.00    +0.062 N 
ATOM     13  O   UNL     1     -31.190  13.376 -19.012  1.00  0.00    -0.258 OA
ATOM     14  O   UNL     1     -33.198  13.199 -19.880  1.00  0.00    -0.258 OA
ENDBRANCH   9  12
ENDBRANCH   2   5
BRANCH   3  15
ATOM     15  C   UNL     1     -29.494  14.159 -27.581  1.00  0.00    +0.083 A 
ATOM     16  C   UNL     1     -29.685  13.298 -28.673  1.00  0.00    +0.128 A 
ATOM     17  C   UNL     1     -28.503  15.150 -27.662  1.00  0.00    +0.038 A 
ATOM     18  C   UNL     1     -28.875  13.387 -29.804  1.00  0.00    +0.048 A 
ATOM     19  C   UNL     1     -27.701  15.238 -28.802  1.00  0.00    +0.042 A 
ATOM     20  C   UNL     1     -27.876  14.358 -29.867  1.00  0.00    +0.024 A 
ATOM     21 Cl   UNL     1     -26.485  16.451 -28.891  1.00  0.00    -0.084 Cl
BRANCH  16  22
ATOM     22  O   UNL     1     -30.656  12.333 -28.705  1.00  0.00    -0.507 OA
ATOM     23  H   UNL     1     -30.242  11.476 -28.455  1.00  0.00    +0.293 HD
ENDBRANCH  16  22
ENDBRANCH   3  15
TORSDOF 4
ENDMDL
MODEL 3
REMARK VINA RESULT:    -7.755      1.962      2.399
REMARK INTER + INTRA:         -10.060
REMARK INTER:                  -9.391
REMARK INTRA:                  -0.669
REMARK UNBOUND:                -0.719
REMARK SMILES O=C(Nc1ccc([N+](=O)[O-])cc1Cl)c1cc(Cl)ccc1O
REMARK SMILES IDX 1 1 3 2 2 3 4 5 12 6 11 7 5 8 7 9 6 10 13 11 8 12 9 13 10 14
REMARK SMILES IDX 14 15 20 16 15 17 19 18 16 19 18 20 17 21 21 22
REMARK H PARENT 3 4 21 23
ROOT
ATOM      1  O   UNL     1     -25.981  13.527 -21.941  1.00  0.00    -0.269 OA
ATOM      2  N   UNL     1     -26.980  13.001 -23.976  1.00  0.00    -0.321 N 
ATOM      3  C   UNL     1     -26.866  12.990 -22.600  1.00  0.00    +0.259 C 
ATOM      4  H   UNL     1     -27.659  12.380 -24.405  1.00  0.00    +0.170 HD
ENDROOT
BRANCH   2   5
ATOM      5  C   UNL     1     -26.172  13.701 -24.907  1.00  0.00    +0.060 A 
ATOM      6  C   UNL     1     -26.498  15.043 -25.195  1.00  0.00    +0.071 A 
ATOM      7  C   UNL     1     -25.747  15.797 -26.100  1.00  0.00    +0.108 A 
ATOM      8  C   UNL     1     -25.064  13.133 -25.542  1.00  0.00    +0.035 A 
ATOM      9  C   UNL     1     -24.646  15.205 -26.727  1.00  0.00    +0.271 A 
ATOM     10  C   UNL     1     -24.302  13.878 -26.451  1.00  0.00    +0.088 A 
ATOM     11 Cl   UNL     1     -27.853  15.808 -24.430  1.00  0.00    -0.082 Cl
BRANCH   9  12
ATOM     12  N   UNL     1     -23.846  15.984 -27.679  1.00  0.00    +0.062 N 
ATOM     13  O   UNL     1     -23.386  15.389 -28.664  1.00  0.00    -0.258 OA
ATOM     14  O   UNL     1     -23.678  17.188 -27.442  1.00  0.00    -0.258 OA
ENDBRANCH   9  12
ENDBRANCH   2   5
BRANCH   3  15
ATOM     15  C   UNL     1     -27.889  12.195 -21.860  1.00  0.00    +0.083 A 
ATOM     16  C   UNL     1     -27.764  10.797 -21.793  1.00  0.00    +0.128 A 
ATOM     17  C   UNL     1     -28.964  12.813 -21.204  1.00  0.00    +0.038 A 
ATOM     18  C   UNL     1     -28.717  10.026 -21.130  1.00  0.00    +0.048 A 
ATOM     19  C   UNL     1     -29.910  12.033 -20.534  1.00  0.00    +0.042 A 
ATOM     20  C   UNL     1     -29.796  10.645 -20.501  1.00  0.00    +0.024 A 
ATOM     21 Cl   UNL     1     -31.229  12.798 -19.737  1.00  0.00    -0.084 Cl
BRANCH  16  22
ATOM     22  O   UNL     1     -26.725  10.110 -22.361  1.00  0.00    -0.507 OA
ATOM     23  H   UNL     1     -26.355  10.662 -23.087  1.00  0.00    +0.293 HD
ENDBRANCH  16  22
ENDBRANCH   3  15
TORSDOF 4
ENDMDL
MODEL 4
REMARK VINA RESULT:    -7.663      2.890      3.402
REMARK INTER + INTRA:          -9.949
REMARK INTER:                  -9.227
REMARK INTRA:                  -0.722
REMARK UNBOUND:                -0.719
REMARK SMILES O=C(Nc1ccc([N+](=O)[O-])cc1Cl)c1cc(Cl)ccc1O
REMARK SMILES IDX 1 1 3 2 2 3 4 5 12 6 11 7 5 8 7 9 6 10 13 11 8 12 9 13 10 14
REMARK SMILES IDX 14 15 20 16 15 17 19 18 16 19 18 20 17 21 21 22
REMARK H PARENT 3 4 21 23
ROOT
ATOM      1  O   UNL     1     -25.580   9.675 -24.196  1.00  0.00    -0.269 OA
ATOM      2  N   UNL     1     -26.584  11.720 -24.671  1.00  0.00    -0.321 N 
ATOM      3  C   UNL     1     -26.402  10.554 -23.954  1.00  0.00    +0.259 C 
ATOM      4  H   UNL     1     -27.406  12.281 -24.470  1.00  0.00    +0.170 HD
ENDROOT
BRANCH   2   5
ATOM      5  C   UNL     1     -25.817  12.195 -25.763  1.00  0.00    +0.060 A 
ATOM      6  C   UNL     1     -24.904  13.245 -25.530  1.00  0.00    +0.071 A 
ATOM      7  C   UNL     1     -24.112  13.763 -26.557  1.00  0.00    +0.108 A 
ATOM      8  C   UNL     1     -25.909  11.667 -27.055  1.00  0.00    +0.035 A 
ATOM      9  C   UNL     1     -24.227  13.223 -27.842  1.00  0.00    +0.271 A 
ATOM     10  C   UNL     1     -25.121  12.177 -28.094  1.00  0.00    +0.088 A 
ATOM     11 Cl   UNL     1     -24.733  13.933 -23.948  1.00  0.00    -0.082 Cl
BRANCH   9  12
ATOM     12  N   UNL     1     -23.400  13.756 -28.931  1.00  0.00    +0.062 N 
ATOM     13  O   UNL     1     -22.755  12.945 -29.612  1.00  0.00    -0.258 OA
ATOM     14  O   UNL     1     -23.397  14.982 -29.105  1.00  0.00    -0.258 OA
ENDBRANCH   9  12
ENDBRANCH   2   5
BRANCH   3  15
ATOM     15  C   UNL     1     -27.339  10.326 -22.815  1.00  0.00    +0.083 A 
ATOM     16  C   UNL     1     -28.187   9.206 -22.831  1.00  0.00    +0.128 A 
ATOM     17  C   UNL     1     -27.377  11.191 -21.711  1.00  0.00    +0.038 A 
ATOM     18  C   UNL     1     -29.090   8.979 -21.794  1.00  0.00    +0.048 A 
ATOM     19  C   UNL     1     -28.278  10.951 -20.672  1.00  0.00    +0.042 A 
ATOM     20  C   UNL     1     -29.139   9.857 -20.712  1.00  0.00    +0.024 A 
ATOM     21 Cl   UNL     1     -28.323  12.021 -19.325  1.00  0.00    -0.084 Cl
BRANCH  16  22
ATOM     22  O   UNL     1     -28.188   8.282 -23.842  1.00  0.00    -0.507 OA
ATOM     23  H   UNL     1     -27.909   8.735 -24.670  1.00  0.00    +0.293 HD
ENDBRANCH  16  22
ENDBRANCH   3  15
TORSDOF 4
ENDMDL
MODEL 5
REMARK VINA RESULT:    -7.590      3.852      4.769
REMARK INTER + INTRA:          -9.862
REMARK INTER:                  -9.165
REMARK INTRA:                  -0.697
REMARK UNBOUND:                -0.719
REMARK SMILES O=C(Nc1ccc([N+](=O)[O-])cc1Cl)c1cc(Cl)ccc1O
REMARK SMILES IDX 1 1 3 2 2 3 4 5 12 6 11 7 5 8 7 9 6 10 13 11 8 12 9 13 10 14
REMARK SMILES IDX 14 15 20 16 15 17 19 18 16 19 18 20 17 21 21 22
REMARK H PARENT 3 4 21 23
ROOT
ATOM      1  O   UNL     1     -24.671  14.621 -23.839  1.00  0.00    -0.269 OA
ATOM      2  N   UNL     1     -26.165  14.329 -25.600  1.00  0.00    -0.321 N 
ATOM      3  C   UNL     1     -25.811  14.613 -24.296  1.00  0.00    +0.259 C 
ATOM      4  H   UNL     1     -27.149  14.191 -25.809  1.00  0.00    +0.170 HD
ENDROOT
BRANCH   2   5
ATOM      5  C   UNL     1     -25.304  14.084 -26.698  1.00  0.00    +0.060 A 
ATOM      6  C   UNL     1     -24.735  15.192 -27.360  1.00  0.00    +0.071 A 
ATOM      7  C   UNL     1     -23.875  15.028 -28.449  1.00  0.00    +0.108 A 
ATOM      8  C   UNL     1     -24.981  12.800 -27.149  1.00  0.00    +0.035 A 
ATOM      9  C   UNL     1     -23.572  13.735 -28.885  1.00  0.00    +0.271 A 
ATOM     10  C   UNL     1     -24.120  12.621 -28.240  1.00  0.00    +0.088 A 
ATOM     11 Cl   UNL     1     -25.086  16.808 -26.840  1.00  0.00    -0.082 Cl
BRANCH   9  12
ATOM     12  N   UNL     1     -22.669  13.546 -30.027  1.00  0.00    +0.062 N 
ATOM     13  O   UNL     1     -22.355  12.384 -30.324  1.00  0.00    -0.258 OA
ATOM     14  O   UNL     1     -22.276  14.557 -30.624  1.00  0.00    -0.258 OA
ENDBRANCH   9  12
ENDBRANCH   2   5
BRANCH   3  15
ATOM     15  C   UNL     1     -26.933  14.875 -23.349  1.00  0.00    +0.083 A 
ATOM     16  C   UNL     1     -27.986  15.718 -23.741  1.00  0.00    +0.128 A 
ATOM     17  C   UNL     1     -26.977  14.278 -22.080  1.00  0.00    +0.038 A 
ATOM     18  C   UNL     1     -29.037  16.001 -22.869  1.00  0.00    +0.048 A 
ATOM     19  C   UNL     1     -28.038  14.561 -21.216  1.00  0.00    +0.042 A 
ATOM     20  C   UNL     1     -29.061  15.424 -21.600  1.00  0.00    +0.024 A 
ATOM     21 Cl   UNL     1     -28.081  13.829 -19.659  1.00  0.00    -0.084 Cl
BRANCH  16  22
ATOM     22  O   UNL     1     -28.055  16.307 -24.975  1.00  0.00    -0.507 OA
ATOM     23  H   UNL     1     -28.999  16.329 -25.250  1.00  0.00    +0.293 HD
ENDBRANCH  16  22
ENDBRANCH   3  15
TORSDOF 4
ENDMDL
MODEL 6
REMARK VINA RESULT:    -7.510      2.614      3.127
REMARK INTER + INTRA:          -9.765
REMARK INTER:                  -9.027
REMARK INTRA:                  -0.738
REMARK UNBOUND:                -0.719
REMARK SMILES O=C(Nc1ccc([N+](=O)[O-])cc1Cl)c1cc(Cl)ccc1O
REMARK SMILES IDX 1 1 3 2 2 3 4 5 12 6 11 7 5 8 7 9 6 10 13 11 8 12 9 13 10 14
REMARK SMILES IDX 14 15 20 16 15 17 19 18 16 19 18 20 17 21 21 22
REMARK H PARENT 3 4 21 23
ROOT
ATOM      1  O   UNL     1     -28.473  15.657 -22.829  1.00  0.00    -0.269 OA
ATOM      2  N   UNL     1     -27.674  13.772 -23.933  1.00  0.00    -0.321 N 
ATOM      3  C   UNL     1     -28.455  14.444 -23.016  1.00  0.00    +0.259 C 
ATOM      4  H   UNL     1     -27.628  12.759 -23.872  1.00  0.00    +0.170 HD
ENDROOT
BRANCH   2   5
ATOM      5  C   UNL     1     -26.809  14.328 -24.908  1.00  0.00    +0.060 A 
ATOM      6  C   UNL     1     -25.432  14.410 -24.609  1.00  0.00    +0.071 A 
ATOM      7  C   UNL     1     -24.519  14.944 -25.522  1.00  0.00    +0.108 A 
ATOM      8  C   UNL     1     -27.249  14.785 -26.154  1.00  0.00    +0.035 A 
ATOM      9  C   UNL     1     -24.984  15.401 -26.759  1.00  0.00    +0.271 A 
ATOM     10  C   UNL     1     -26.344  15.323 -27.078  1.00  0.00    +0.088 A 
ATOM     11 Cl   UNL     1     -24.823  13.847 -23.087  1.00  0.00    -0.082 Cl
BRANCH   9  12
ATOM     12  N   UNL     1     -24.037  15.964 -27.729  1.00  0.00    +0.062 N 
ATOM     13  O   UNL     1     -23.640  17.122 -27.537  1.00  0.00    -0.258 OA
ATOM     14  O   UNL     1     -23.693  15.248 -28.680  1.00  0.00    -0.258 OA
ENDBRANCH   9  12
ENDBRANCH   2   5
BRANCH   3  15
ATOM     15  C   UNL     1     -29.311  13.599 -22.132  1.00  0.00    +0.083 A 
ATOM     16  C   UNL     1     -28.708  12.762 -21.180  1.00  0.00    +0.128 A 
ATOM     17  C   UNL     1     -30.712  13.639 -22.212  1.00  0.00    +0.038 A 
ATOM     18  C   UNL     1     -29.479  11.943 -20.357  1.00  0.00    +0.048 A 
ATOM     19  C   UNL     1     -31.478  12.822 -21.377  1.00  0.00    +0.042 A 
ATOM     20  C   UNL     1     -30.870  11.970 -20.458  1.00  0.00    +0.024 A 
ATOM     21 Cl   UNL     1     -33.194  12.872 -21.485  1.00  0.00    -0.084 Cl
BRANCH  16  22
ATOM     22  O   UNL     1     -27.352  12.690 -20.997  1.00  0.00    -0.507 OA
ATOM     23  H   UNL     1     -26.966  12.206 -21.762  1.00  0.00    +0.293 HD
ENDBRANCH  16  22
ENDBRANCH   3  15
TORSDOF 4
ENDMDL
MODEL 7
REMARK VINA RESULT:    -7.498      2.196      2.459
REMARK INTER + INTRA:          -9.750
REMARK INTER:                  -9.037
REMARK INTRA:                  -0.713
REMARK UNBOUND:                -0.719
REMARK SMILES O=C(Nc1ccc([N+](=O)[O-])cc1Cl)c1cc(Cl)ccc1O
REMARK SMILES IDX 1 1 3 2 2 3 4 5 12 6 11 7 5 8 7 9 6 10 13 11 8 12 9 13 10 14
REMARK SMILES IDX 14 15 20 16 15 17 19 18 16 19 18 20 17 21 21 22
REMARK H PARENT 3 4 21 23
ROOT
ATOM      1  O   UNL     1     -28.153  11.079 -25.369  1.00  0.00    -0.269 OA
ATOM      2  N   UNL     1     -27.133  12.693 -24.038  1.00  0.00    -0.321 N 
ATOM      3  C   UNL     1     -27.917  11.582 -24.274  1.00  0.00    +0.259 C 
ATOM      4  H   UNL     1     -27.155  13.106 -23.110  1.00  0.00    +0.170 HD
ENDROOT
BRANCH   2   5
ATOM      5  C   UNL     1     -26.365  13.427 -24.976  1.00  0.00    +0.060 A 
ATOM      6  C   UNL     1     -26.881  14.653 -25.446  1.00  0.00    +0.071 A 
ATOM      7  C   UNL     1     -26.180  15.433 -26.369  1.00  0.00    +0.108 A 
ATOM      8  C   UNL     1     -25.118  13.005 -25.447  1.00  0.00    +0.035 A 
ATOM      9  C   UNL     1     -24.938  14.986 -26.830  1.00  0.00    +0.271 A 
ATOM     10  C   UNL     1     -24.405  13.776 -26.373  1.00  0.00    +0.088 A 
ATOM     11 Cl   UNL     1     -28.415  15.238 -24.890  1.00  0.00    -0.082 Cl
BRANCH   9  12
ATOM     12  N   UNL     1     -24.188  15.794 -27.800  1.00  0.00    +0.062 N 
ATOM     13  O   UNL     1     -23.778  16.902 -27.427  1.00  0.00    -0.258 OA
ATOM     14  O   UNL     1     -24.012  15.320 -28.930  1.00  0.00    -0.258 OA
ENDBRANCH   9  12
ENDBRANCH   2   5
BRANCH   3  15
ATOM     15  C   UNL     1     -28.583  10.979 -23.082  1.00  0.00    +0.083 A 
ATOM     16  C   UNL     1     -28.247   9.673 -22.689  1.00  0.00    +0.128 A 
ATOM     17  C   UNL     1     -29.524  11.695 -22.327  1.00  0.00    +0.038 A 
ATOM     18  C   UNL     1     -28.869   9.074 -21.595  1.00  0.00    +0.048 A 
ATOM     19  C   UNL     1     -30.137  11.090 -21.227  1.00  0.00    +0.042 A 
ATOM     20  C   UNL     1     -29.821   9.783 -20.864  1.00  0.00    +0.024 A 
ATOM     21 Cl   UNL     1     -31.294  11.973 -20.310  1.00  0.00    -0.084 Cl
BRANCH  16  22
ATOM     22  O   UNL     1     -27.307   8.915 -23.335  1.00  0.00    -0.507 OA
ATOM     23  H   UNL     1     -26.546   9.498 -23.558  1.00  0.00    +0.293 HD
ENDBRANCH  16  22
ENDBRANCH   3  15
TORSDOF 4
ENDMDL
MODEL 8
REMARK VINA RESULT:    -7.451      3.907      7.656
REMARK INTER + INTRA:          -9.694
REMARK INTER:                  -9.026
REMARK INTRA:                  -0.668
REMARK UNBOUND:                -0.719
REMARK SMILES O=C(Nc1ccc([N+](=O)[O-])cc1Cl)c1cc(Cl)ccc1O
REMARK SMILES IDX 1 1 3 2 2 3 4 5 12 6 11 7 5 8 7 9 6 10 13 11 8 12 9 13 10 14
REMARK SMILES IDX 14 15 20 16 15 17 19 18 16 19 18 20 17 21 21 22
REMARK H PARENT 3 4 21 23
ROOT
ATOM      1  O   UNL     1     -28.750  15.432 -21.971  1.00  0.00    -0.269 OA
ATOM      2  N   UNL     1     -29.287  13.180 -22.204  1.00  0.00    -0.321 N 
ATOM      3  C   UNL     1     -28.477  14.290 -22.329  1.00  0.00    +0.259 C 
ATOM      4  H   UNL     1     -29.014  12.331 -22.691  1.00  0.00    +0.170 HD
ENDROOT
BRANCH   2   5
ATOM      5  C   UNL     1     -30.547  13.094 -21.561  1.00  0.00    +0.060 A 
ATOM      6  C   UNL     1     -31.688  12.865 -22.358  1.00  0.00    +0.071 A 
ATOM      7  C   UNL     1     -32.962  12.766 -21.794  1.00  0.00    +0.108 A 
ATOM      8  C   UNL     1     -30.712  13.211 -20.177  1.00  0.00    +0.035 A 
ATOM      9  C   UNL     1     -33.103  12.893 -20.409  1.00  0.00    +0.271 A 
ATOM     10  C   UNL     1     -31.984  13.114 -19.599  1.00  0.00    +0.088 A 
ATOM     11 Cl   UNL     1     -31.546  12.697 -24.077  1.00  0.00    -0.082 Cl
BRANCH   9  12
ATOM     12  N   UNL     1     -34.435  12.790 -19.801  1.00  0.00    +0.062 N 
ATOM     13  O   UNL     1     -34.667  13.489 -18.804  1.00  0.00    -0.258 OA
ATOM     14  O   UNL     1     -35.248  12.012 -20.320  1.00  0.00    -0.258 OA
ENDBRANCH   9  12
ENDBRANCH   2   5
BRANCH   3  15
ATOM     15  C   UNL     1     -27.172  14.081 -23.022  1.00  0.00    +0.083 A 
ATOM     16  C   UNL     1     -26.363  12.992 -22.658  1.00  0.00    +0.128 A 
ATOM     17  C   UNL     1     -26.741  14.934 -24.049  1.00  0.00    +0.038 A 
ATOM     18  C   UNL     1     -25.127  12.783 -23.270  1.00  0.00    +0.048 A 
ATOM     19  C   UNL     1     -25.506  14.713 -24.663  1.00  0.00    +0.042 A 
ATOM     20  C   UNL     1     -24.695  13.649 -24.273  1.00  0.00    +0.024 A 
ATOM     21 Cl   UNL     1     -24.983  15.767 -25.917  1.00  0.00    -0.084 Cl
BRANCH  16  22
ATOM     22  O   UNL     1     -26.720  12.080 -21.701  1.00  0.00    -0.507 OA
ATOM     23  H   UNL     1     -27.540  11.627 -22.003  1.00  0.00    +0.293 HD
ENDBRANCH  16  22
ENDBRANCH   3  15
TORSDOF 4
ENDMDL
MODEL 9
REMARK VINA RESULT:    -7.448      3.839      4.671
REMARK INTER + INTRA:          -9.691
REMARK INTER:                  -9.045
REMARK INTRA:                  -0.646
REMARK UNBOUND:                -0.719
REMARK SMILES O=C(Nc1ccc([N+](=O)[O-])cc1Cl)c1cc(Cl)ccc1O
REMARK SMILES IDX 1 1 3 2 2 3 4 5 12 6 11 7 5 8 7 9 6 10 13 11 8 12 9 13 10 14
REMARK SMILES IDX 14 15 20 16 15 17 19 18 16 19 18 20 17 21 21 22
REMARK H PARENT 3 4 21 23
ROOT
ATOM      1  O   UNL     1     -27.540  16.094 -25.657  1.00  0.00    -0.269 OA
ATOM      2  N   UNL     1     -26.094  14.375 -25.050  1.00  0.00    -0.321 N 
ATOM      3  C   UNL     1     -27.168  15.223 -24.875  1.00  0.00    +0.259 C 
ATOM      4  H   UNL     1     -25.791  13.817 -24.258  1.00  0.00    +0.170 HD
ENDROOT
BRANCH   2   5
ATOM      5  C   UNL     1     -25.258  14.257 -26.189  1.00  0.00    +0.060 A 
ATOM      6  C   UNL     1     -25.345  13.080 -26.961  1.00  0.00    +0.071 A 
ATOM      7  C   UNL     1     -24.555  12.894 -28.098  1.00  0.00    +0.108 A 
ATOM      8  C   UNL     1     -24.363  15.253 -26.591  1.00  0.00    +0.035 A 
ATOM      9  C   UNL     1     -23.663  13.902 -28.477  1.00  0.00    +0.271 A 
ATOM     10  C   UNL     1     -23.565  15.080 -27.729  1.00  0.00    +0.088 A 
ATOM     11 Cl   UNL     1     -26.445  11.814 -26.522  1.00  0.00    -0.082 Cl
BRANCH   9  12
ATOM     12  N   UNL     1     -22.827  13.722 -29.669  1.00  0.00    +0.062 N 
ATOM     13  O   UNL     1     -22.519  14.736 -30.312  1.00  0.00    -0.258 OA
ATOM     14  O   UNL     1     -22.480  12.569 -29.962  1.00  0.00    -0.258 OA
ENDBRANCH   9  12
ENDBRANCH   2   5
BRANCH   3  15
ATOM     15  C   UNL     1     -27.903  15.101 -23.582  1.00  0.00    +0.083 A 
ATOM     16  C   UNL     1     -29.290  15.318 -23.552  1.00  0.00    +0.128 A 
ATOM     17  C   UNL     1     -27.244  14.749 -22.394  1.00  0.00    +0.038 A 
ATOM     18  C   UNL     1     -30.001  15.235 -22.356  1.00  0.00    +0.048 A 
ATOM     19  C   UNL     1     -27.965  14.659 -21.201  1.00  0.00    +0.042 A 
ATOM     20  C   UNL     1     -29.335  14.908 -21.175  1.00  0.00    +0.024 A 
ATOM     21 Cl   UNL     1     -27.149  14.233 -19.748  1.00  0.00    -0.084 Cl
BRANCH  16  22
ATOM     22  O   UNL     1     -30.026  15.619 -24.667  1.00  0.00    -0.507 OA
ATOM     23  H   UNL     1     -29.484  16.209 -25.240  1.00  0.00    +0.293 HD
ENDBRANCH  16  22
ENDBRANCH   3  15
TORSDOF 4
ENDMDL
