MODEL 1
REMARK VINA RESULT:    -6.670      0.000      0.000
REMARK INTER + INTRA:          -8.742
REMARK INTER:                  -8.035
REMARK INTRA:                  -0.706
REMARK UNBOUND:                -0.706
REMARK SMILES O=C(Nc1ccc([N+](=O)[O-])cc1Cl)c1cc(Cl)ccc1O
REMARK SMILES IDX 1 1 3 2 2 3 4 5 12 6 11 7 5 8 7 9 6 10 13 11 8 12 9 13 10 14
REMARK SMILES IDX 14 15 20 16 15 17 19 18 16 19 18 20 17 21 21 22
REMARK H PARENT 3 4 21 23
ROOT
ATOM      1  O   UNL     1     -13.834  -6.626  17.172  1.00  0.00    -0.269 OA
ATOM      2  N   UNL     1     -15.885  -5.651  16.666  1.00  0.00    -0.321 N 
ATOM      3  C   UNL     1     -15.022  -6.429  17.411  1.00  0.00    +0.259 C 
ATOM      4  H   UNL     1     -16.878  -5.706  16.874  1.00  0.00    +0.170 HD
ENDROOT
BRANCH   2   5
ATOM      5  C   UNL     1     -15.577  -4.847  15.541  1.00  0.00    +0.060 A 
ATOM      6  C   UNL     1     -15.195  -3.507  15.763  1.00  0.00    +0.071 A 
ATOM      7  C   UNL     1     -14.874  -2.656  14.703  1.00  0.00    +0.108 A 
ATOM      8  C   UNL     1     -15.618  -5.319  14.225  1.00  0.00    +0.035 A 
ATOM      9  C   UNL     1     -14.929  -3.149  13.396  1.00  0.00    +0.271 A 
ATOM     10  C   UNL     1     -15.299  -4.476  13.153  1.00  0.00    +0.088 A 
ATOM     11 Cl   UNL     1     -15.111  -2.867  17.372  1.00  0.00    -0.082 Cl
BRANCH   9  12
ATOM     12  N   UNL     1     -14.593  -2.267  12.272  1.00  0.00    +0.062 N 
ATOM     13  O   UNL     1     -15.521  -1.651  11.729  1.00  0.00    -0.258 OA
ATOM     14  O   UNL     1     -13.404  -2.193  11.933  1.00  0.00    -0.258 OA
ENDBRANCH   9  12
ENDBRANCH   2   5
BRANCH   3  15
ATOM     15  C   UNL     1     -15.616  -7.141  18.581  1.00  0.00    +0.083 A 
ATOM     16  C   UNL     1     -16.052  -6.400  19.691  1.00  0.00    +0.128 A 
ATOM     17  C   UNL     1     -15.772  -8.535  18.589  1.00  0.00    +0.038 A 
ATOM     18  C   UNL     1     -16.589  -7.038  20.809  1.00  0.00    +0.048 A 
ATOM     19  C   UNL     1     -16.319  -9.165  19.710  1.00  0.00    +0.042 A 
ATOM     20  C   UNL     1     -16.719  -8.426  20.820  1.00  0.00    +0.024 A 
ATOM     21 Cl   UNL     1     -16.501 -10.876  19.714  1.00  0.00    -0.084 Cl
BRANCH  16  22
ATOM     22  O   UNL     1     -15.984  -5.034  19.755  1.00  0.00    -0.507 OA
ATOM     23  H   UNL     1     -15.406  -4.793  20.514  1.00  0.00    +0.293 HD
ENDBRANCH  16  22
ENDBRANCH   3  15
TORSDOF 4
ENDMDL
MODEL 2
REMARK VINA RESULT:    -6.504      3.265      7.587
REMARK INTER + INTRA:          -8.541
REMARK INTER:                  -7.845
REMARK INTRA:                  -0.697
REMARK UNBOUND:                -0.706
REMARK SMILES O=C(Nc1ccc([N+](=O)[O-])cc1Cl)c1cc(Cl)ccc1O
REMARK SMILES IDX 1 1 3 2 2 3 4 5 12 6 11 7 5 8 7 9 6 10 13 11 8 12 9 13 10 14
REMARK SMILES IDX 14 15 20 16 15 17 19 18 16 19 18 20 17 21 21 22
REMARK H PARENT 3 4 21 23
ROOT
ATOM      1  O   UNL     1     -16.399  -6.606  15.811  1.00  0.00    -0.269 OA
ATOM      2  N   UNL     1     -15.001  -6.858  17.653  1.00  0.00    -0.321 N 
ATOM      3  C   UNL     1     -15.557  -6.173  16.592  1.00  0.00    +0.259 C 
ATOM      4  H   UNL     1     -14.196  -6.448  18.118  1.00  0.00    +0.170 HD
ENDROOT
BRANCH   2   5
ATOM      5  C   UNL     1     -15.339  -8.151  18.124  1.00  0.00    +0.060 A 
ATOM      6  C   UNL     1     -16.001  -8.256  19.366  1.00  0.00    +0.071 A 
ATOM      7  C   UNL     1     -16.368  -9.497  19.893  1.00  0.00    +0.108 A 
ATOM      8  C   UNL     1     -15.063  -9.324  17.414  1.00  0.00    +0.035 A 
ATOM      9  C   UNL     1     -16.076 -10.656  19.167  1.00  0.00    +0.271 A 
ATOM     10  C   UNL     1     -15.426 -10.574  17.930  1.00  0.00    +0.088 A 
ATOM     11 Cl   UNL     1     -16.383  -6.839  20.287  1.00  0.00    -0.082 Cl
BRANCH   9  12
ATOM     12  N   UNL     1     -16.456 -11.967  19.706  1.00  0.00    +0.062 N 
ATOM     13  O   UNL     1     -16.928 -12.001  20.852  1.00  0.00    -0.258 OA
ATOM     14  O   UNL     1     -16.283 -12.959  18.985  1.00  0.00    -0.258 OA
ENDBRANCH   9  12
ENDBRANCH   2   5
BRANCH   3  15
ATOM     15  C   UNL     1     -15.035  -4.797  16.347  1.00  0.00    +0.083 A 
ATOM     16  C   UNL     1     -15.267  -3.789  17.298  1.00  0.00    +0.128 A 
ATOM     17  C   UNL     1     -14.292  -4.488  15.198  1.00  0.00    +0.038 A 
ATOM     18  C   UNL     1     -14.812  -2.489  17.086  1.00  0.00    +0.048 A 
ATOM     19  C   UNL     1     -13.833  -3.184  14.997  1.00  0.00    +0.042 A 
ATOM     20  C   UNL     1     -14.096  -2.183  15.930  1.00  0.00    +0.024 A 
ATOM     21 Cl   UNL     1     -12.928  -2.813  13.582  1.00  0.00    -0.084 Cl
BRANCH  16  22
ATOM     22  O   UNL     1     -15.940  -4.006  18.471  1.00  0.00    -0.507 OA
ATOM     23  H   UNL     1     -15.752  -3.252  19.074  1.00  0.00    +0.293 HD
ENDBRANCH  16  22
ENDBRANCH   3  15
TORSDOF 4
ENDMDL
MODEL 3
REMARK VINA RESULT:    -6.310     13.679     14.359
REMARK INTER + INTRA:          -8.307
REMARK INTER:                  -7.622
REMARK INTRA:                  -0.686
REMARK UNBOUND:                -0.706
REMARK SMILES O=C(Nc1ccc([N+](=O)[O-])cc1Cl)c1cc(Cl)ccc1O
REMARK SMILES IDX 1 1 3 2 2 3 4 5 12 6 11 7 5 8 7 9 6 10 13 11 8 12 9 13 10 14
REMARK SMILES IDX 14 15 20 16 15 17 19 18 16 19 18 20 17 21 21 22
REMARK H PARENT 3 4 21 23
ROOT
ATOM      1  O   UNL     1     -10.851 -15.652  21.911  1.00  0.00    -0.269 OA
ATOM      2  N   UNL     1     -11.016 -17.969  21.770  1.00  0.00    -0.321 N 
ATOM      3  C   UNL     1     -11.208 -16.737  22.362  1.00  0.00    +0.259 C 
ATOM      4  H   UNL     1     -11.207 -18.800  22.322  1.00  0.00    +0.170 HD
ENDROOT
BRANCH   2   5
ATOM      5  C   UNL     1     -10.461 -18.242  20.495  1.00  0.00    +0.060 A 
ATOM      6  C   UNL     1     -11.281 -18.068  19.360  1.00  0.00    +0.071 A 
ATOM      7  C   UNL     1     -10.803 -18.315  18.071  1.00  0.00    +0.108 A 
ATOM      8  C   UNL     1      -9.140 -18.660  20.305  1.00  0.00    +0.035 A 
ATOM      9  C   UNL     1      -9.481 -18.739  17.907  1.00  0.00    +0.271 A 
ATOM     10  C   UNL     1      -8.648 -18.911  19.018  1.00  0.00    +0.088 A 
ATOM     11 Cl   UNL     1     -12.923 -17.539  19.529  1.00  0.00    -0.082 Cl
BRANCH   9  12
ATOM     12  N   UNL     1      -8.963 -19.001  16.559  1.00  0.00    +0.062 N 
ATOM     13  O   UNL     1      -8.389 -18.071  15.974  1.00  0.00    -0.258 OA
ATOM     14  O   UNL     1      -9.130 -20.134  16.088  1.00  0.00    -0.258 OA
ENDBRANCH   9  12
ENDBRANCH   2   5
BRANCH   3  15
ATOM     15  C   UNL     1     -11.861 -16.743  23.703  1.00  0.00    +0.083 A 
ATOM     16  C   UNL     1     -13.146 -17.294  23.845  1.00  0.00    +0.128 A 
ATOM     17  C   UNL     1     -11.212 -16.233  24.838  1.00  0.00    +0.038 A 
ATOM     18  C   UNL     1     -13.792 -17.292  25.080  1.00  0.00    +0.048 A 
ATOM     19  C   UNL     1     -11.863 -16.243  26.074  1.00  0.00    +0.042 A 
ATOM     20  C   UNL     1     -13.150 -16.761  26.198  1.00  0.00    +0.024 A 
ATOM     21 Cl   UNL     1     -11.062 -15.610  27.458  1.00  0.00    -0.084 Cl
BRANCH  16  22
ATOM     22  O   UNL     1     -13.838 -17.856  22.806  1.00  0.00    -0.507 OA
ATOM     23  H   UNL     1     -13.819 -18.834  22.922  1.00  0.00    +0.293 HD
ENDBRANCH  16  22
ENDBRANCH   3  15
TORSDOF 4
ENDMDL
MODEL 4
REMARK VINA RESULT:    -6.285      9.534     11.568
REMARK INTER + INTRA:          -8.278
REMARK INTER:                  -7.610
REMARK INTRA:                  -0.668
REMARK UNBOUND:                -0.706
REMARK SMILES O=C(Nc1ccc([N+](=O)[O-])cc1Cl)c1cc(Cl)ccc1O
REMARK SMILES IDX 1 1 3 2 2 3 4 5 12 6 11 7 5 8 7 9 6 10 13 11 8 12 9 13 10 14
REMARK SMILES IDX 14 15 20 16 15 17 19 18 16 19 18 20 17 21 21 22
REMARK H PARENT 3 4 21 23
ROOT
ATOM      1  O   UNL     1     -15.862 -15.472  14.543  1.00  0.00    -0.269 OA
ATOM      2  N   UNL     1     -18.105 -14.861  14.638  1.00  0.00    -0.321 N 
ATOM      3  C   UNL     1     -16.764 -14.742  14.943  1.00  0.00    +0.259 C 
ATOM      4  H   UNL     1     -18.767 -14.299  15.166  1.00  0.00    +0.170 HD
ENDROOT
BRANCH   2   5
ATOM      5  C   UNL     1     -18.713 -15.773  13.741  1.00  0.00    +0.060 A 
ATOM      6  C   UNL     1     -19.149 -15.288  12.490  1.00  0.00    +0.071 A 
ATOM      7  C   UNL     1     -19.754 -16.129  11.553  1.00  0.00    +0.108 A 
ATOM      8  C   UNL     1     -18.889 -17.131  14.027  1.00  0.00    +0.035 A 
ATOM      9  C   UNL     1     -19.925 -17.481  11.865  1.00  0.00    +0.271 A 
ATOM     10  C   UNL     1     -19.495 -17.985  13.097  1.00  0.00    +0.088 A 
ATOM     11 Cl   UNL     1     -18.946 -13.618  12.070  1.00  0.00    -0.082 Cl
BRANCH   9  12
ATOM     12  N   UNL     1     -20.558 -18.378  10.890  1.00  0.00    +0.062 N 
ATOM     13  O   UNL     1     -20.735 -19.557  11.226  1.00  0.00    -0.258 OA
ATOM     14  O   UNL     1     -20.877 -17.902   9.792  1.00  0.00    -0.258 OA
ENDBRANCH   9  12
ENDBRANCH   2   5
BRANCH   3  15
ATOM     15  C   UNL     1     -16.397 -13.654  15.896  1.00  0.00    +0.083 A 
ATOM     16  C   UNL     1     -16.138 -13.971  17.240  1.00  0.00    +0.128 A 
ATOM     17  C   UNL     1     -16.280 -12.320  15.478  1.00  0.00    +0.038 A 
ATOM     18  C   UNL     1     -15.817 -12.974  18.160  1.00  0.00    +0.048 A 
ATOM     19  C   UNL     1     -15.949 -11.328  16.404  1.00  0.00    +0.042 A 
ATOM     20  C   UNL     1     -15.725 -11.647  17.742  1.00  0.00    +0.024 A 
ATOM     21 Cl   UNL     1     -15.813  -9.694  15.884  1.00  0.00    -0.084 Cl
BRANCH  16  22
ATOM     22  O   UNL     1     -16.181 -15.248  17.730  1.00  0.00    -0.507 OA
ATOM     23  H   UNL     1     -16.845 -15.753  17.207  1.00  0.00    +0.293 HD
ENDBRANCH  16  22
ENDBRANCH   3  15
TORSDOF 4
ENDMDL
MODEL 5
REMARK VINA RESULT:    -6.258      9.946     11.940
REMARK INTER + INTRA:          -8.245
REMARK INTER:                  -7.768
REMARK INTRA:                  -0.477
REMARK UNBOUND:                -0.706
REMARK SMILES O=C(Nc1ccc([N+](=O)[O-])cc1Cl)c1cc(Cl)ccc1O
REMARK SMILES IDX 1 1 3 2 2 3 4 5 12 6 11 7 5 8 7 9 6 10 13 11 8 12 9 13 10 14
REMARK SMILES IDX 14 15 20 16 15 17 19 18 16 19 18 20 17 21 21 22
REMARK H PARENT 3 4 21 23
ROOT
ATOM      1  O   UNL     1     -21.235 -12.196  12.218  1.00  0.00    -0.269 OA
ATOM      2  N   UNL     1     -19.161 -13.251  12.207  1.00  0.00    -0.321 N 
ATOM      3  C   UNL     1     -20.018 -12.183  12.379  1.00  0.00    +0.259 C 
ATOM      4  H   UNL     1     -18.162 -13.067  12.207  1.00  0.00    +0.170 HD
ENDROOT
BRANCH   2   5
ATOM      5  C   UNL     1     -19.498 -14.594  11.908  1.00  0.00    +0.060 A 
ATOM      6  C   UNL     1     -19.990 -15.407  12.951  1.00  0.00    +0.071 A 
ATOM      7  C   UNL     1     -20.345 -16.739  12.731  1.00  0.00    +0.108 A 
ATOM      8  C   UNL     1     -19.382 -15.149  10.630  1.00  0.00    +0.035 A 
ATOM      9  C   UNL     1     -20.214 -17.273  11.446  1.00  0.00    +0.271 A 
ATOM     10  C   UNL     1     -19.735 -16.484  10.395  1.00  0.00    +0.088 A 
ATOM     11 Cl   UNL     1     -20.170 -14.773  14.555  1.00  0.00    -0.082 Cl
BRANCH   9  12
ATOM     12  N   UNL     1     -20.585 -18.672  11.198  1.00  0.00    +0.062 N 
ATOM     13  O   UNL     1     -20.438 -19.109  10.047  1.00  0.00    -0.258 OA
ATOM     14  O   UNL     1     -21.022 -19.330  12.152  1.00  0.00    -0.258 OA
ENDBRANCH   9  12
ENDBRANCH   2   5
BRANCH   3  15
ATOM     15  C   UNL     1     -19.385 -10.879  12.736  1.00  0.00    +0.083 A 
ATOM     16  C   UNL     1     -20.072  -9.682  12.472  1.00  0.00    +0.128 A 
ATOM     17  C   UNL     1     -18.127 -10.819  13.354  1.00  0.00    +0.038 A 
ATOM     18  C   UNL     1     -19.497  -8.448  12.772  1.00  0.00    +0.048 A 
ATOM     19  C   UNL     1     -17.562  -9.578  13.658  1.00  0.00    +0.042 A 
ATOM     20  C   UNL     1     -18.236  -8.395  13.364  1.00  0.00    +0.024 A 
ATOM     21 Cl   UNL     1     -16.016  -9.513  14.410  1.00  0.00    -0.084 Cl
BRANCH  16  22
ATOM     22  O   UNL     1     -21.323  -9.643  11.916  1.00  0.00    -0.507 OA
ATOM     23  H   UNL     1     -21.287 -10.112  11.052  1.00  0.00    +0.293 HD
ENDBRANCH  16  22
ENDBRANCH   3  15
TORSDOF 4
ENDMDL
MODEL 6
REMARK VINA RESULT:    -6.240      4.913      9.127
REMARK INTER + INTRA:          -8.223
REMARK INTER:                  -7.497
REMARK INTRA:                  -0.726
REMARK UNBOUND:                -0.706
REMARK SMILES O=C(Nc1ccc([N+](=O)[O-])cc1Cl)c1cc(Cl)ccc1O
REMARK SMILES IDX 1 1 3 2 2 3 4 5 12 6 11 7 5 8 7 9 6 10 13 11 8 12 9 13 10 14
REMARK SMILES IDX 14 15 20 16 15 17 19 18 16 19 18 20 17 21 21 22
REMARK H PARENT 3 4 21 23
ROOT
ATOM      1  O   UNL     1     -16.859  -9.923  20.350  1.00  0.00    -0.269 OA
ATOM      2  N   UNL     1     -14.861  -8.761  20.622  1.00  0.00    -0.321 N 
ATOM      3  C   UNL     1     -15.958  -9.210  19.916  1.00  0.00    +0.259 C 
ATOM      4  H   UNL     1     -14.106  -8.321  20.105  1.00  0.00    +0.170 HD
ENDROOT
BRANCH   2   5
ATOM      5  C   UNL     1     -14.585  -8.938  22.001  1.00  0.00    +0.060 A 
ATOM      6  C   UNL     1     -13.754 -10.012  22.382  1.00  0.00    +0.071 A 
ATOM      7  C   UNL     1     -13.436 -10.248  23.722  1.00  0.00    +0.108 A 
ATOM      8  C   UNL     1     -15.085  -8.096  22.999  1.00  0.00    +0.035 A 
ATOM      9  C   UNL     1     -13.953  -9.395  24.702  1.00  0.00    +0.271 A 
ATOM     10  C   UNL     1     -14.775  -8.321  24.346  1.00  0.00    +0.088 A 
ATOM     11 Cl   UNL     1     -13.092 -11.084  21.191  1.00  0.00    -0.082 Cl
BRANCH   9  12
ATOM     12  N   UNL     1     -13.627  -9.629  26.114  1.00  0.00    +0.062 N 
ATOM     13  O   UNL     1     -12.565  -9.158  26.544  1.00  0.00    -0.258 OA
ATOM     14  O   UNL     1     -14.434 -10.283  26.790  1.00  0.00    -0.258 OA
ENDBRANCH   9  12
ENDBRANCH   2   5
BRANCH   3  15
ATOM     15  C   UNL     1     -16.013  -8.837  18.472  1.00  0.00    +0.083 A 
ATOM     16  C   UNL     1     -16.164  -7.487  18.113  1.00  0.00    +0.128 A 
ATOM     17  C   UNL     1     -15.892  -9.800  17.460  1.00  0.00    +0.038 A 
ATOM     18  C   UNL     1     -16.243  -7.109  16.773  1.00  0.00    +0.048 A 
ATOM     19  C   UNL     1     -15.963  -9.412  16.120  1.00  0.00    +0.042 A 
ATOM     20  C   UNL     1     -16.146  -8.076  15.772  1.00  0.00    +0.024 A 
ATOM     21 Cl   UNL     1     -15.820 -10.601  14.885  1.00  0.00    -0.084 Cl
BRANCH  16  22
ATOM     22  O   UNL     1     -16.243  -6.472  19.028  1.00  0.00    -0.507 OA
ATOM     23  H   UNL     1     -15.352  -6.061  19.105  1.00  0.00    +0.293 HD
ENDBRANCH  16  22
ENDBRANCH   3  15
TORSDOF 4
ENDMDL
MODEL 7
REMARK VINA RESULT:    -5.895     14.524     16.403
REMARK INTER + INTRA:          -7.808
REMARK INTER:                  -7.104
REMARK INTRA:                  -0.704
REMARK UNBOUND:                -0.706
REMARK SMILES O=C(Nc1ccc([N+](=O)[O-])cc1Cl)c1cc(Cl)ccc1O
REMARK SMILES IDX 1 1 3 2 2 3 4 5 12 6 11 7 5 8 7 9 6 10 13 11 8 12 9 13 10 14
REMARK SMILES IDX 14 15 20 16 15 17 19 18 16 19 18 20 17 21 21 22
REMARK H PARENT 3 4 21 23
ROOT
ATOM      1  O   UNL     1     -10.874 -16.130  27.128  1.00  0.00    -0.269 OA
ATOM      2  N   UNL     1     -13.122 -15.531  27.195  1.00  0.00    -0.321 N 
ATOM      3  C   UNL     1     -11.980 -16.031  26.603  1.00  0.00    +0.259 C 
ATOM      4  H   UNL     1     -13.926 -15.347  26.602  1.00  0.00    +0.170 HD
ENDROOT
BRANCH   2   5
ATOM      5  C   UNL     1     -13.292 -15.118  28.540  1.00  0.00    +0.060 A 
ATOM      6  C   UNL     1     -13.094 -13.756  28.849  1.00  0.00    +0.071 A 
ATOM      7  C   UNL     1     -13.247 -13.276  30.152  1.00  0.00    +0.108 A 
ATOM      8  C   UNL     1     -13.659 -15.989  29.570  1.00  0.00    +0.035 A 
ATOM      9  C   UNL     1     -13.608 -14.167  31.167  1.00  0.00    +0.271 A 
ATOM     10  C   UNL     1     -13.816 -15.521  30.880  1.00  0.00    +0.088 A 
ATOM     11 Cl   UNL     1     -12.652 -12.624  27.614  1.00  0.00    -0.082 Cl
BRANCH   9  12
ATOM     12  N   UNL     1     -13.773 -13.678  32.540  1.00  0.00    +0.062 N 
ATOM     13  O   UNL     1     -14.157 -12.509  32.691  1.00  0.00    -0.258 OA
ATOM     14  O   UNL     1     -13.519 -14.461  33.466  1.00  0.00    -0.258 OA
ENDBRANCH   9  12
ENDBRANCH   2   5
BRANCH   3  15
ATOM     15  C   UNL     1     -12.099 -16.432  25.171  1.00  0.00    +0.083 A 
ATOM     16  C   UNL     1     -13.217 -17.171  24.750  1.00  0.00    +0.128 A 
ATOM     17  C   UNL     1     -11.130 -16.067  24.224  1.00  0.00    +0.038 A 
ATOM     18  C   UNL     1     -13.345 -17.581  23.424  1.00  0.00    +0.048 A 
ATOM     19  C   UNL     1     -11.270 -16.475  22.895  1.00  0.00    +0.042 A 
ATOM     20  C   UNL     1     -12.366 -17.235  22.493  1.00  0.00    +0.024 A 
ATOM     21 Cl   UNL     1     -10.074 -16.028  21.741  1.00  0.00    -0.084 Cl
BRANCH  16  22
ATOM     22  O   UNL     1     -14.235 -17.533  25.591  1.00  0.00    -0.507 OA
ATOM     23  H   UNL     1     -14.843 -16.764  25.682  1.00  0.00    +0.293 HD
ENDBRANCH  16  22
ENDBRANCH   3  15
TORSDOF 4
ENDMDL
MODEL 8
REMARK VINA RESULT:    -5.782     13.497     15.324
REMARK INTER + INTRA:          -7.671
REMARK INTER:                  -7.066
REMARK INTRA:                  -0.605
REMARK UNBOUND:                -0.706
REMARK SMILES O=C(Nc1ccc([N+](=O)[O-])cc1Cl)c1cc(Cl)ccc1O
REMARK SMILES IDX 1 1 3 2 2 3 4 5 12 6 11 7 5 8 7 9 6 10 13 11 8 12 9 13 10 14
REMARK SMILES IDX 14 15 20 16 15 17 19 18 16 19 18 20 17 21 21 22
REMARK H PARENT 3 4 21 23
ROOT
ATOM      1  O   UNL     1     -10.942 -15.538  21.447  1.00  0.00    -0.269 OA
ATOM      2  N   UNL     1     -11.762 -17.453  22.484  1.00  0.00    -0.321 N 
ATOM      3  C   UNL     1     -11.281 -16.718  21.420  1.00  0.00    +0.259 C 
ATOM      4  H   UNL     1     -12.164 -18.365  22.293  1.00  0.00    +0.170 HD
ENDROOT
BRANCH   2   5
ATOM      5  C   UNL     1     -11.877 -17.047  23.837  1.00  0.00    +0.060 A 
ATOM      6  C   UNL     1     -13.131 -17.180  24.469  1.00  0.00    +0.071 A 
ATOM      7  C   UNL     1     -13.320 -16.802  25.800  1.00  0.00    +0.108 A 
ATOM      8  C   UNL     1     -10.808 -16.533  24.579  1.00  0.00    +0.035 A 
ATOM      9  C   UNL     1     -12.238 -16.286  26.519  1.00  0.00    +0.271 A 
ATOM     10  C   UNL     1     -10.984 -16.151  25.915  1.00  0.00    +0.088 A 
ATOM     11 Cl   UNL     1     -14.491 -17.822  23.606  1.00  0.00    -0.082 Cl
BRANCH   9  12
ATOM     12  N   UNL     1     -12.420 -15.886  27.920  1.00  0.00    +0.062 N 
ATOM     13  O   UNL     1     -13.397 -15.173  28.191  1.00  0.00    -0.258 OA
ATOM     14  O   UNL     1     -11.588 -16.285  28.746  1.00  0.00    -0.258 OA
ENDBRANCH   9  12
ENDBRANCH   2   5
BRANCH   3  15
ATOM     15  C   UNL     1     -11.230 -17.418  20.103  1.00  0.00    +0.083 A 
ATOM     16  C   UNL     1     -12.427 -17.791  19.471  1.00  0.00    +0.128 A 
ATOM     17  C   UNL     1     -10.011 -17.693  19.465  1.00  0.00    +0.038 A 
ATOM     18  C   UNL     1     -12.412 -18.467  18.252  1.00  0.00    +0.048 A 
ATOM     19  C   UNL     1     -10.004 -18.364  18.240  1.00  0.00    +0.042 A 
ATOM     20  C   UNL     1     -11.195 -18.759  17.636  1.00  0.00    +0.024 A 
ATOM     21 Cl   UNL     1      -8.504 -18.702  17.468  1.00  0.00    -0.084 Cl
BRANCH  16  22
ATOM     22  O   UNL     1     -13.665 -17.523  19.993  1.00  0.00    -0.507 OA
ATOM     23  H   UNL     1     -13.616 -16.661  20.465  1.00  0.00    +0.293 HD
ENDBRANCH  16  22
ENDBRANCH   3  15
TORSDOF 4
ENDMDL
MODEL 9
REMARK VINA RESULT:    -5.766      9.441     14.003
REMARK INTER + INTRA:          -7.652
REMARK INTER:                  -6.958
REMARK INTRA:                  -0.695
REMARK UNBOUND:                -0.706
REMARK SMILES O=C(Nc1ccc([N+](=O)[O-])cc1Cl)c1cc(Cl)ccc1O
REMARK SMILES IDX 1 1 3 2 2 3 4 5 12 6 11 7 5 8 7 9 6 10 13 11 8 12 9 13 10 14
REMARK SMILES IDX 14 15 20 16 15 17 19 18 16 19 18 20 17 21 21 22
REMARK H PARENT 3 4 21 23
ROOT
ATOM      1  O   UNL     1     -12.552 -11.445  25.684  1.00  0.00    -0.269 OA
ATOM      2  N   UNL     1     -14.300 -10.547  26.929  1.00  0.00    -0.321 N 
ATOM      3  C   UNL     1     -13.423 -10.599  25.865  1.00  0.00    +0.259 C 
ATOM      4  H   UNL     1     -14.857  -9.706  27.049  1.00  0.00    +0.170 HD
ENDROOT
BRANCH   2   5
ATOM      5  C   UNL     1     -14.451 -11.490  27.976  1.00  0.00    +0.060 A 
ATOM      6  C   UNL     1     -13.785 -11.245  29.195  1.00  0.00    +0.071 A 
ATOM      7  C   UNL     1     -13.888 -12.129  30.272  1.00  0.00    +0.108 A 
ATOM      8  C   UNL     1     -15.236 -12.641  27.865  1.00  0.00    +0.035 A 
ATOM      9  C   UNL     1     -14.675 -13.277  30.135  1.00  0.00    +0.271 A 
ATOM     10  C   UNL     1     -15.349 -13.536  28.937  1.00  0.00    +0.088 A 
ATOM     11 Cl   UNL     1     -12.807  -9.828  29.400  1.00  0.00    -0.082 Cl
BRANCH   9  12
ATOM     12  N   UNL     1     -14.795 -14.214  31.258  1.00  0.00    +0.062 N 
ATOM     13  O   UNL     1     -15.098 -15.387  30.996  1.00  0.00    -0.258 OA
ATOM     14  O   UNL     1     -14.586 -13.777  32.398  1.00  0.00    -0.258 OA
ENDBRANCH   9  12
ENDBRANCH   2   5
BRANCH   3  15
ATOM     15  C   UNL     1     -13.513  -9.483  24.879  1.00  0.00    +0.083 A 
ATOM     16  C   UNL     1     -12.944  -8.237  25.191  1.00  0.00    +0.128 A 
ATOM     17  C   UNL     1     -14.132  -9.654  23.631  1.00  0.00    +0.038 A 
ATOM     18  C   UNL     1     -13.033  -7.168  24.301  1.00  0.00    +0.048 A 
ATOM     19  C   UNL     1     -14.209  -8.580  22.742  1.00  0.00    +0.042 A 
ATOM     20  C   UNL     1     -13.671  -7.338  23.073  1.00  0.00    +0.024 A 
ATOM     21 Cl   UNL     1     -14.975  -8.796  21.217  1.00  0.00    -0.084 Cl
BRANCH  16  22
ATOM     22  O   UNL     1     -12.279  -7.989  26.362  1.00  0.00    -0.507 OA
ATOM     23  H   UNL     1     -12.669  -7.181  26.768  1.00  0.00    +0.293 HD
ENDBRANCH  16  22
ENDBRANCH   3  15
TORSDOF 4
ENDMDL
