MODEL 1
REMARK VINA RESULT:    -6.319      0.000      0.000
REMARK INTER + INTRA:          -8.963
REMARK INTER:                  -8.166
REMARK INTRA:                  -0.797
REMARK UNBOUND:                -0.797
REMARK SMILES CC(=O)Oc1ccccc1C(=O)Nc1ncc([N+](=O)[O-])s1
REMARK SMILES IDX 10 1 5 2 9 3 6 4 8 5 7 6 11 7 13 8 12 9 14 11 21 12 17 13
REMARK SMILES IDX 15 14 16 15 18 16 19 17 20 18 4 19 2 20 3 21 1 22
REMARK H PARENT 13 10
ROOT
ATOM      1  C   UNL     1     -16.136  -8.867  18.113  1.00  0.00    +0.083 A 
ATOM      2  C   UNL     1     -16.343  -9.017  19.489  1.00  0.00    +0.143 A 
ATOM      3  C   UNL     1     -15.892  -9.995  17.319  1.00  0.00    +0.018 A 
ATOM      4  C   UNL     1     -16.334 -10.285  20.073  1.00  0.00    +0.048 A 
ATOM      5  C   UNL     1     -15.864 -11.263  17.907  1.00  0.00    +0.001 A 
ATOM      6  C   UNL     1     -16.087 -11.406  19.278  1.00  0.00    +0.004 A 
ENDROOT
BRANCH   1   7
ATOM      7  C   UNL     1     -16.185  -7.529  17.483  1.00  0.00    +0.261 C 
ATOM      8  N   UNL     1     -15.225  -6.669  17.961  1.00  0.00    -0.298 N 
ATOM      9  O   UNL     1     -17.060  -7.303  16.659  1.00  0.00    -0.269 OA
ATOM     10  H   UNL     1     -14.655  -6.935  18.751  1.00  0.00    +0.172 HD
BRANCH   8  11
ATOM     11  C   UNL     1     -15.131  -5.373  17.538  1.00  0.00    +0.195 A 
ATOM     12  S   UNL     1     -14.264  -5.183  16.076  1.00  0.00    -0.024 S 
ATOM     13  C   UNL     1     -14.534  -3.508  16.175  1.00  0.00    +0.345 A 
ATOM     14  N   UNL     1     -15.609  -4.281  18.079  1.00  0.00    -0.221 NA
ATOM     15  C   UNL     1     -15.263  -3.193  17.297  1.00  0.00    +0.212 A 
BRANCH  13  16
ATOM     16  N   UNL     1     -14.042  -2.603  15.188  1.00  0.00    +0.076 N 
ATOM     17  O   UNL     1     -14.853  -2.096  14.402  1.00  0.00    -0.257 OA
ATOM     18  O   UNL     1     -12.822  -2.390  15.196  1.00  0.00    -0.257 OA
ENDBRANCH  13  16
ENDBRANCH   8  11
ENDBRANCH   1   7
BRANCH   2  19
ATOM     19  O   UNL     1     -16.608  -7.933  20.332  1.00  0.00    -0.426 OA
BRANCH  19  20
ATOM     20  C   UNL     1     -15.853  -7.930  21.500  1.00  0.00    +0.308 C 
ATOM     21  O   UNL     1     -16.272  -8.120  22.637  1.00  0.00    -0.252 OA
ATOM     22  C   UNL     1     -14.423  -7.644  21.157  1.00  0.00    +0.139 C 
ENDBRANCH  19  20
ENDBRANCH   2  19
TORSDOF 5
ENDMDL
MODEL 2
REMARK VINA RESULT:    -6.181      7.280      9.078
REMARK INTER + INTRA:          -8.784
REMARK INTER:                  -7.598
REMARK INTRA:                  -1.186
REMARK UNBOUND:                -0.797
REMARK SMILES CC(=O)Oc1ccccc1C(=O)Nc1ncc([N+](=O)[O-])s1
REMARK SMILES IDX 10 1 5 2 9 3 6 4 8 5 7 6 11 7 13 8 12 9 14 11 21 12 17 13
REMARK SMILES IDX 15 14 16 15 18 16 19 17 20 18 4 19 2 20 3 21 1 22
REMARK H PARENT 13 10
ROOT
ATOM      1  C   UNL     1     -19.543 -13.342  13.171  1.00  0.00    +0.083 A 
ATOM      2  C   UNL     1     -19.561 -13.811  11.852  1.00  0.00    +0.143 A 
ATOM      3  C   UNL     1     -19.814 -14.222  14.226  1.00  0.00    +0.018 A 
ATOM      4  C   UNL     1     -19.822 -15.155  11.582  1.00  0.00    +0.048 A 
ATOM      5  C   UNL     1     -20.094 -15.564  13.954  1.00  0.00    +0.001 A 
ATOM      6  C   UNL     1     -20.096 -16.028  12.637  1.00  0.00    +0.004 A 
ENDROOT
BRANCH   1   7
ATOM      7  C   UNL     1     -19.227 -11.926  13.465  1.00  0.00    +0.261 C 
ATOM      8  N   UNL     1     -20.097 -11.041  12.875  1.00  0.00    -0.298 N 
ATOM      9  O   UNL     1     -18.240 -11.678  14.144  1.00  0.00    -0.269 OA
ATOM     10  H   UNL     1     -20.786 -11.373  12.215  1.00  0.00    +0.172 HD
BRANCH   8  11
ATOM     11  C   UNL     1     -19.951  -9.688  12.990  1.00  0.00    +0.195 A 
ATOM     12  S   UNL     1     -19.294  -8.942  11.599  1.00  0.00    -0.024 S 
ATOM     13  C   UNL     1     -19.397  -7.444  12.397  1.00  0.00    +0.345 A 
ATOM     14  N   UNL     1     -20.247  -8.898  13.992  1.00  0.00    -0.221 NA
ATOM     15  C   UNL     1     -19.924  -7.595  13.658  1.00  0.00    +0.212 A 
BRANCH  13  16
ATOM     16  N   UNL     1     -18.976  -6.229  11.780  1.00  0.00    +0.076 N 
ATOM     17  O   UNL     1     -18.012  -5.627  12.271  1.00  0.00    -0.257 OA
ATOM     18  O   UNL     1     -19.616  -5.867  10.784  1.00  0.00    -0.257 OA
ENDBRANCH  13  16
ENDBRANCH   8  11
ENDBRANCH   1   7
BRANCH   2  19
ATOM     19  O   UNL     1     -19.282 -12.986  10.757  1.00  0.00    -0.426 OA
BRANCH  19  20
ATOM     20  C   UNL     1     -20.394 -12.696   9.973  1.00  0.00    +0.308 C 
ATOM     21  O   UNL     1     -21.472 -12.269  10.370  1.00  0.00    -0.252 OA
ATOM     22  C   UNL     1     -20.074 -12.999   8.540  1.00  0.00    +0.139 C 
ENDBRANCH  19  20
ENDBRANCH   2  19
TORSDOF 5
ENDMDL
MODEL 3
REMARK VINA RESULT:    -6.123      4.941      7.392
REMARK INTER + INTRA:          -8.710
REMARK INTER:                  -7.542
REMARK INTRA:                  -1.168
REMARK UNBOUND:                -0.797
REMARK SMILES CC(=O)Oc1ccccc1C(=O)Nc1ncc([N+](=O)[O-])s1
REMARK SMILES IDX 10 1 5 2 9 3 6 4 8 5 7 6 11 7 13 8 12 9 14 11 21 12 17 13
REMARK SMILES IDX 15 14 16 15 18 16 19 17 20 18 4 19 2 20 3 21 1 22
REMARK H PARENT 13 10
ROOT
ATOM      1  C   UNL     1     -14.662 -10.512  20.584  1.00  0.00    +0.083 A 
ATOM      2  C   UNL     1     -15.200  -9.384  19.954  1.00  0.00    +0.143 A 
ATOM      3  C   UNL     1     -14.914 -11.787  20.062  1.00  0.00    +0.018 A 
ATOM      4  C   UNL     1     -15.964  -9.517  18.793  1.00  0.00    +0.048 A 
ATOM      5  C   UNL     1     -15.695 -11.922  18.911  1.00  0.00    +0.001 A 
ATOM      6  C   UNL     1     -16.215 -10.790  18.278  1.00  0.00    +0.004 A 
ENDROOT
BRANCH   1   7
ATOM      7  C   UNL     1     -13.819 -10.372  21.792  1.00  0.00    +0.261 C 
ATOM      8  N   UNL     1     -14.499  -9.870  22.875  1.00  0.00    -0.298 N 
ATOM      9  O   UNL     1     -12.634 -10.666  21.713  1.00  0.00    -0.269 OA
ATOM     10  H   UNL     1     -15.443  -9.528  22.765  1.00  0.00    +0.172 HD
BRANCH   8  11
ATOM     11  C   UNL     1     -13.888  -9.626  24.072  1.00  0.00    +0.195 A 
ATOM     12  S   UNL     1     -13.185  -8.072  24.187  1.00  0.00    -0.024 S 
ATOM     13  C   UNL     1     -12.676  -8.457  25.763  1.00  0.00    +0.345 A 
ATOM     14  N   UNL     1     -13.776 -10.397  25.125  1.00  0.00    -0.221 NA
ATOM     15  C   UNL     1     -13.070  -9.728  26.109  1.00  0.00    +0.212 A 
BRANCH  13  16
ATOM     16  N   UNL     1     -11.942  -7.535  26.567  1.00  0.00    +0.076 N 
ATOM     17  O   UNL     1     -11.838  -6.368  26.170  1.00  0.00    -0.257 OA
ATOM     18  O   UNL     1     -11.461  -7.983  27.617  1.00  0.00    -0.257 OA
ENDBRANCH  13  16
ENDBRANCH   8  11
ENDBRANCH   1   7
BRANCH   2  19
ATOM     19  O   UNL     1     -14.972  -8.083  20.417  1.00  0.00    -0.426 OA
BRANCH  19  20
ATOM     20  C   UNL     1     -16.057  -7.523  21.082  1.00  0.00    +0.308 C 
ATOM     21  O   UNL     1     -16.732  -8.061  21.953  1.00  0.00    -0.252 OA
ATOM     22  C   UNL     1     -16.291  -6.140  20.557  1.00  0.00    +0.139 C 
ENDBRANCH  19  20
ENDBRANCH   2  19
TORSDOF 5
ENDMDL
MODEL 4
REMARK VINA RESULT:    -6.039      8.805     11.093
REMARK INTER + INTRA:          -8.601
REMARK INTER:                  -7.751
REMARK INTRA:                  -0.849
REMARK UNBOUND:                -0.797
REMARK SMILES CC(=O)Oc1ccccc1C(=O)Nc1ncc([N+](=O)[O-])s1
REMARK SMILES IDX 10 1 5 2 9 3 6 4 8 5 7 6 11 7 13 8 12 9 14 11 21 12 17 13
REMARK SMILES IDX 15 14 16 15 18 16 19 17 20 18 4 19 2 20 3 21 1 22
REMARK H PARENT 13 10
ROOT
ATOM      1  C   UNL     1     -15.443 -12.865  28.573  1.00  0.00    +0.083 A 
ATOM      2  C   UNL     1     -14.574 -13.232  29.607  1.00  0.00    +0.143 A 
ATOM      3  C   UNL     1     -16.518 -13.697  28.240  1.00  0.00    +0.018 A 
ATOM      4  C   UNL     1     -14.786 -14.409  30.326  1.00  0.00    +0.048 A 
ATOM      5  C   UNL     1     -16.719 -14.886  28.947  1.00  0.00    +0.001 A 
ATOM      6  C   UNL     1     -15.857 -15.238  29.988  1.00  0.00    +0.004 A 
ENDROOT
BRANCH   1   7
ATOM      7  C   UNL     1     -15.245 -11.597  27.835  1.00  0.00    +0.261 C 
ATOM      8  N   UNL     1     -14.078 -11.567  27.110  1.00  0.00    -0.298 N 
ATOM      9  O   UNL     1     -16.081 -10.713  27.961  1.00  0.00    -0.269 OA
ATOM     10  H   UNL     1     -13.401 -12.310  27.210  1.00  0.00    +0.172 HD
BRANCH   8  11
ATOM     11  C   UNL     1     -13.692 -10.470  26.394  1.00  0.00    +0.195 A 
ATOM     12  S   UNL     1     -12.500  -9.520  27.171  1.00  0.00    -0.024 S 
ATOM     13  C   UNL     1     -12.525  -8.464  25.839  1.00  0.00    +0.345 A 
ATOM     14  N   UNL     1     -14.091 -10.057  25.217  1.00  0.00    -0.221 NA
ATOM     15  C   UNL     1     -13.423  -8.891  24.890  1.00  0.00    +0.212 A 
BRANCH  13  16
ATOM     16  N   UNL     1     -11.695  -7.305  25.778  1.00  0.00    +0.076 N 
ATOM     17  O   UNL     1     -12.239  -6.194  25.821  1.00  0.00    -0.257 OA
ATOM     18  O   UNL     1     -10.476  -7.505  25.690  1.00  0.00    -0.257 OA
ENDBRANCH  13  16
ENDBRANCH   8  11
ENDBRANCH   1   7
BRANCH   2  19
ATOM     19  O   UNL     1     -13.492 -12.436  29.999  1.00  0.00    -0.426 OA
BRANCH  19  20
ATOM     20  C   UNL     1     -13.735 -11.678  31.140  1.00  0.00    +0.308 C 
ATOM     21  O   UNL     1     -13.936 -12.109  32.270  1.00  0.00    -0.252 OA
ATOM     22  C   UNL     1     -13.726 -10.225  30.773  1.00  0.00    +0.139 C 
ENDBRANCH  19  20
ENDBRANCH   2  19
TORSDOF 5
ENDMDL
MODEL 5
REMARK VINA RESULT:    -5.985      4.646      6.571
REMARK INTER + INTRA:          -8.531
REMARK INTER:                  -7.416
REMARK INTRA:                  -1.115
REMARK UNBOUND:                -0.797
REMARK SMILES CC(=O)Oc1ccccc1C(=O)Nc1ncc([N+](=O)[O-])s1
REMARK SMILES IDX 10 1 5 2 9 3 6 4 8 5 7 6 11 7 13 8 12 9 14 11 21 12 17 13
REMARK SMILES IDX 15 14 16 15 18 16 19 17 20 18 4 19 2 20 3 21 1 22
REMARK H PARENT 13 10
ROOT
ATOM      1  C   UNL     1     -14.016  -9.744  22.387  1.00  0.00    +0.083 A 
ATOM      2  C   UNL     1     -14.353  -8.385  22.408  1.00  0.00    +0.143 A 
ATOM      3  C   UNL     1     -13.665 -10.392  23.577  1.00  0.00    +0.018 A 
ATOM      4  C   UNL     1     -14.368  -7.678  23.612  1.00  0.00    +0.048 A 
ATOM      5  C   UNL     1     -13.661  -9.679  24.779  1.00  0.00    +0.001 A 
ATOM      6  C   UNL     1     -14.014  -8.328  24.795  1.00  0.00    +0.004 A 
ENDROOT
BRANCH   1   7
ATOM      7  C   UNL     1     -14.039 -10.507  21.119  1.00  0.00    +0.261 C 
ATOM      8  N   UNL     1     -15.300 -10.651  20.594  1.00  0.00    -0.298 N 
ATOM      9  O   UNL     1     -12.985 -10.957  20.691  1.00  0.00    -0.269 OA
ATOM     10  H   UNL     1     -16.107 -10.357  21.126  1.00  0.00    +0.172 HD
BRANCH   8  11
ATOM     11  C   UNL     1     -15.538 -11.360  19.451  1.00  0.00    +0.195 A 
ATOM     12  S   UNL     1     -15.669 -10.390  18.049  1.00  0.00    -0.024 S 
ATOM     13  C   UNL     1     -15.934 -11.802  17.140  1.00  0.00    +0.345 A 
ATOM     14  N   UNL     1     -15.668 -12.652  19.281  1.00  0.00    -0.221 NA
ATOM     15  C   UNL     1     -15.904 -12.917  17.944  1.00  0.00    +0.212 A 
BRANCH  13  16
ATOM     16  N   UNL     1     -16.152 -11.764  15.730  1.00  0.00    +0.076 N 
ATOM     17  O   UNL     1     -16.728 -10.777  15.254  1.00  0.00    -0.257 OA
ATOM     18  O   UNL     1     -15.737 -12.735  15.083  1.00  0.00    -0.257 OA
ENDBRANCH  13  16
ENDBRANCH   8  11
ENDBRANCH   1   7
BRANCH   2  19
ATOM     19  O   UNL     1     -14.729  -7.685  21.257  1.00  0.00    -0.426 OA
BRANCH  19  20
ATOM     20  C   UNL     1     -16.099  -7.473  21.149  1.00  0.00    +0.308 C 
ATOM     21  O   UNL     1     -16.982  -8.287  21.395  1.00  0.00    -0.252 OA
ATOM     22  C   UNL     1     -16.341  -6.075  20.666  1.00  0.00    +0.139 C 
ENDBRANCH  19  20
ENDBRANCH   2  19
TORSDOF 5
ENDMDL
MODEL 6
REMARK VINA RESULT:    -5.950      4.680      7.206
REMARK INTER + INTRA:          -8.486
REMARK INTER:                  -7.700
REMARK INTRA:                  -0.786
REMARK UNBOUND:                -0.797
REMARK SMILES CC(=O)Oc1ccccc1C(=O)Nc1ncc([N+](=O)[O-])s1
REMARK SMILES IDX 10 1 5 2 9 3 6 4 8 5 7 6 11 7 13 8 12 9 14 11 21 12 17 13
REMARK SMILES IDX 15 14 16 15 18 16 19 17 20 18 4 19 2 20 3 21 1 22
REMARK H PARENT 13 10
ROOT
ATOM      1  C   UNL     1     -15.832  -8.575  19.301  1.00  0.00    +0.083 A 
ATOM      2  C   UNL     1     -15.447  -9.764  18.669  1.00  0.00    +0.143 A 
ATOM      3  C   UNL     1     -16.292  -7.498  18.534  1.00  0.00    +0.018 A 
ATOM      4  C   UNL     1     -15.545  -9.893  17.283  1.00  0.00    +0.048 A 
ATOM      5  C   UNL     1     -16.373  -7.621  17.144  1.00  0.00    +0.001 A 
ATOM      6  C   UNL     1     -16.002  -8.815  16.522  1.00  0.00    +0.004 A 
ENDROOT
BRANCH   1   7
ATOM      7  C   UNL     1     -15.768  -8.447  20.774  1.00  0.00    +0.261 C 
ATOM      8  N   UNL     1     -14.485  -8.464  21.265  1.00  0.00    -0.298 N 
ATOM      9  O   UNL     1     -16.817  -8.381  21.399  1.00  0.00    -0.269 OA
ATOM     10  H   UNL     1     -13.710  -8.674  20.652  1.00  0.00    +0.172 HD
BRANCH   8  11
ATOM     11  C   UNL     1     -14.215  -8.402  22.603  1.00  0.00    +0.195 A 
ATOM     12  S   UNL     1     -13.965  -9.928  23.331  1.00  0.00    -0.024 S 
ATOM     13  C   UNL     1     -13.714  -9.139  24.816  1.00  0.00    +0.345 A 
ATOM     14  N   UNL     1     -14.114  -7.357  23.387  1.00  0.00    -0.221 NA
ATOM     15  C   UNL     1     -13.828  -7.776  24.674  1.00  0.00    +0.212 A 
BRANCH  13  16
ATOM     16  N   UNL     1     -13.426  -9.857  26.015  1.00  0.00    +0.076 N 
ATOM     17  O   UNL     1     -14.078 -10.881  26.254  1.00  0.00    -0.257 OA
ATOM     18  O   UNL     1     -12.528  -9.394  26.731  1.00  0.00    -0.257 OA
ENDBRANCH  13  16
ENDBRANCH   8  11
ENDBRANCH   1   7
BRANCH   2  19
ATOM     19  O   UNL     1     -14.995 -10.880  19.380  1.00  0.00    -0.426 OA
BRANCH  19  20
ATOM     20  C   UNL     1     -15.979 -11.834  19.617  1.00  0.00    +0.308 C 
ATOM     21  O   UNL     1     -16.778 -11.839  20.547  1.00  0.00    -0.252 OA
ATOM     22  C   UNL     1     -15.910 -12.883  18.549  1.00  0.00    +0.139 C 
ENDBRANCH  19  20
ENDBRANCH   2  19
TORSDOF 5
ENDMDL
MODEL 7
REMARK VINA RESULT:    -5.920      3.611      6.844
REMARK INTER + INTRA:          -8.447
REMARK INTER:                  -7.379
REMARK INTRA:                  -1.068
REMARK UNBOUND:                -0.797
REMARK SMILES CC(=O)Oc1ccccc1C(=O)Nc1ncc([N+](=O)[O-])s1
REMARK SMILES IDX 10 1 5 2 9 3 6 4 8 5 7 6 11 7 13 8 12 9 14 11 21 12 17 13
REMARK SMILES IDX 15 14 16 15 18 16 19 17 20 18 4 19 2 20 3 21 1 22
REMARK H PARENT 13 10
ROOT
ATOM      1  C   UNL     1     -15.997  -9.042  18.799  1.00  0.00    +0.083 A 
ATOM      2  C   UNL     1     -16.062  -7.918  17.967  1.00  0.00    +0.143 A 
ATOM      3  C   UNL     1     -15.942 -10.323  18.236  1.00  0.00    +0.018 A 
ATOM      4  C   UNL     1     -16.044  -8.063  16.579  1.00  0.00    +0.048 A 
ATOM      5  C   UNL     1     -15.943 -10.469  16.846  1.00  0.00    +0.001 A 
ATOM      6  C   UNL     1     -15.992  -9.342  16.021  1.00  0.00    +0.004 A 
ENDROOT
BRANCH   1   7
ATOM      7  C   UNL     1     -15.975  -8.891  20.271  1.00  0.00    +0.261 C 
ATOM      8  N   UNL     1     -14.734  -8.568  20.765  1.00  0.00    -0.298 N 
ATOM      9  O   UNL     1     -17.007  -9.097  20.894  1.00  0.00    -0.269 OA
ATOM     10  H   UNL     1     -13.929  -8.573  20.155  1.00  0.00    +0.172 HD
BRANCH   8  11
ATOM     11  C   UNL     1     -14.495  -8.427  22.103  1.00  0.00    +0.195 A 
ATOM     12  S   UNL     1     -14.014  -9.874  22.877  1.00  0.00    -0.024 S 
ATOM     13  C   UNL     1     -13.912  -9.015  24.341  1.00  0.00    +0.345 A 
ATOM     14  N   UNL     1     -14.572  -7.359  22.857  1.00  0.00    -0.221 NA
ATOM     15  C   UNL     1     -14.240  -7.692  24.158  1.00  0.00    +0.212 A 
BRANCH  13  16
ATOM     16  N   UNL     1     -13.529  -9.645  25.562  1.00  0.00    +0.076 N 
ATOM     17  O   UNL     1     -12.321  -9.749  25.812  1.00  0.00    -0.257 OA
ATOM     18  O   UNL     1     -14.449 -10.041  26.289  1.00  0.00    -0.257 OA
ENDBRANCH  13  16
ENDBRANCH   8  11
ENDBRANCH   1   7
BRANCH   2  19
ATOM     19  O   UNL     1     -16.102  -6.613  18.468  1.00  0.00    -0.426 OA
BRANCH  19  20
ATOM     20  C   UNL     1     -14.903  -5.921  18.334  1.00  0.00    +0.308 C 
ATOM     21  O   UNL     1     -13.787  -6.337  18.629  1.00  0.00    -0.252 OA
ATOM     22  C   UNL     1     -15.183  -4.559  17.776  1.00  0.00    +0.139 C 
ENDBRANCH  19  20
ENDBRANCH   2  19
TORSDOF 5
ENDMDL
MODEL 8
REMARK VINA RESULT:    -5.841     12.387     13.905
REMARK INTER + INTRA:          -8.345
REMARK INTER:                  -7.360
REMARK INTRA:                  -0.985
REMARK UNBOUND:                -0.797
REMARK SMILES CC(=O)Oc1ccccc1C(=O)Nc1ncc([N+](=O)[O-])s1
REMARK SMILES IDX 10 1 5 2 9 3 6 4 8 5 7 6 11 7 13 8 12 9 14 11 21 12 17 13
REMARK SMILES IDX 15 14 16 15 18 16 19 17 20 18 4 19 2 20 3 21 1 22
REMARK H PARENT 13 10
ROOT
ATOM      1  C   UNL     1     -12.882 -16.631  25.930  1.00  0.00    +0.083 A 
ATOM      2  C   UNL     1     -11.642 -16.283  25.382  1.00  0.00    +0.143 A 
ATOM      3  C   UNL     1     -13.843 -17.260  25.129  1.00  0.00    +0.018 A 
ATOM      4  C   UNL     1     -11.346 -16.582  24.052  1.00  0.00    +0.048 A 
ATOM      5  C   UNL     1     -13.554 -17.543  23.791  1.00  0.00    +0.001 A 
ATOM      6  C   UNL     1     -12.308 -17.206  23.257  1.00  0.00    +0.004 A 
ENDROOT
BRANCH   1   7
ATOM      7  C   UNL     1     -13.185 -16.353  27.351  1.00  0.00    +0.261 C 
ATOM      8  N   UNL     1     -13.896 -15.192  27.538  1.00  0.00    -0.298 N 
ATOM      9  O   UNL     1     -12.761 -17.125  28.200  1.00  0.00    -0.269 OA
ATOM     10  H   UNL     1     -14.057 -14.566  26.761  1.00  0.00    +0.172 HD
BRANCH   8  11
ATOM     11  C   UNL     1     -14.238 -14.736  28.779  1.00  0.00    +0.195 A 
ATOM     12  S   UNL     1     -13.264 -13.445  29.335  1.00  0.00    -0.024 S 
ATOM     13  C   UNL     1     -14.177 -13.422  30.770  1.00  0.00    +0.345 A 
ATOM     14  N   UNL     1     -15.192 -15.136  29.583  1.00  0.00    -0.221 NA
ATOM     15  C   UNL     1     -15.160 -14.382  30.742  1.00  0.00    +0.212 A 
BRANCH  13  16
ATOM     16  N   UNL     1     -13.905 -12.499  31.824  1.00  0.00    +0.076 N 
ATOM     17  O   UNL     1     -14.045 -12.887  32.991  1.00  0.00    -0.257 OA
ATOM     18  O   UNL     1     -13.540 -11.366  31.482  1.00  0.00    -0.257 OA
ENDBRANCH  13  16
ENDBRANCH   8  11
ENDBRANCH   1   7
BRANCH   2  19
ATOM     19  O   UNL     1     -10.634 -15.669  26.134  1.00  0.00    -0.426 OA
BRANCH  19  20
ATOM     20  C   UNL     1     -10.576 -14.288  25.975  1.00  0.00    +0.308 C 
ATOM     21  O   UNL     1     -11.503 -13.499  26.126  1.00  0.00    -0.252 OA
ATOM     22  C   UNL     1      -9.186 -13.900  25.573  1.00  0.00    +0.139 C 
ENDBRANCH  19  20
ENDBRANCH   2  19
TORSDOF 5
ENDMDL
MODEL 9
REMARK VINA RESULT:    -5.811      8.454     11.341
REMARK INTER + INTRA:          -8.306
REMARK INTER:                  -7.120
REMARK INTRA:                  -1.187
REMARK UNBOUND:                -0.797
REMARK SMILES CC(=O)Oc1ccccc1C(=O)Nc1ncc([N+](=O)[O-])s1
REMARK SMILES IDX 10 1 5 2 9 3 6 4 8 5 7 6 11 7 13 8 12 9 14 11 21 12 17 13
REMARK SMILES IDX 15 14 16 15 18 16 19 17 20 18 4 19 2 20 3 21 1 22
REMARK H PARENT 13 10
ROOT
ATOM      1  C   UNL     1     -16.634 -13.924  15.065  1.00  0.00    +0.083 A 
ATOM      2  C   UNL     1     -16.799 -12.613  14.601  1.00  0.00    +0.143 A 
ATOM      3  C   UNL     1     -16.069 -14.149  16.326  1.00  0.00    +0.018 A 
ATOM      4  C   UNL     1     -16.430 -11.528  15.398  1.00  0.00    +0.048 A 
ATOM      5  C   UNL     1     -15.681 -13.063  17.116  1.00  0.00    +0.001 A 
ATOM      6  C   UNL     1     -15.864 -11.758  16.653  1.00  0.00    +0.004 A 
ENDROOT
BRANCH   1   7
ATOM      7  C   UNL     1     -17.062 -15.076  14.240  1.00  0.00    +0.261 C 
ATOM      8  N   UNL     1     -18.427 -15.225  14.182  1.00  0.00    -0.298 N 
ATOM      9  O   UNL     1     -16.201 -15.785  13.738  1.00  0.00    -0.269 OA
ATOM     10  H   UNL     1     -19.023 -14.657  14.766  1.00  0.00    +0.172 HD
BRANCH   8  11
ATOM     11  C   UNL     1     -19.020 -16.254  13.507  1.00  0.00    +0.195 A 
ATOM     12  S   UNL     1     -19.348 -15.907  11.865  1.00  0.00    -0.024 S 
ATOM     13  C   UNL     1     -20.006 -17.466  11.704  1.00  0.00    +0.345 A 
ATOM     14  N   UNL     1     -19.357 -17.447  13.931  1.00  0.00    -0.221 NA
ATOM     15  C   UNL     1     -19.935 -18.155  12.892  1.00  0.00    +0.212 A 
BRANCH  13  16
ATOM     16  N   UNL     1     -20.543 -17.936  10.468  1.00  0.00    +0.076 N 
ATOM     17  O   UNL     1     -20.967 -17.100   9.660  1.00  0.00    -0.257 OA
ATOM     18  O   UNL     1     -20.539 -19.162  10.298  1.00  0.00    -0.257 OA
ENDBRANCH  13  16
ENDBRANCH   8  11
ENDBRANCH   1   7
BRANCH   2  19
ATOM     19  O   UNL     1     -17.373 -12.322  13.359  1.00  0.00    -0.426 OA
BRANCH  19  20
ATOM     20  C   UNL     1     -18.652 -11.782  13.442  1.00  0.00    +0.308 C 
ATOM     21  O   UNL     1     -19.613 -12.276  14.021  1.00  0.00    -0.252 OA
ATOM     22  C   UNL     1     -18.685 -10.485  12.692  1.00  0.00    +0.139 C 
ENDBRANCH  19  20
ENDBRANCH   2  19
TORSDOF 5
ENDMDL
