MODEL 1
REMARK VINA RESULT:    -6.261      0.000      0.000
REMARK INTER + INTRA:          -8.813
REMARK INTER:                  -8.092
REMARK INTRA:                  -0.721
REMARK UNBOUND:                -0.721
REMARK SMILES CC(=O)Oc1ccccc1C(=O)Nc1ncc([N+](=O)[O-])s1
REMARK SMILES IDX 10 1 5 2 9 3 6 4 8 5 7 6 11 7 13 8 12 9 14 11 21 12 17 13
REMARK SMILES IDX 15 14 16 15 18 16 19 17 20 18 4 19 2 20 3 21 1 22
REMARK H PARENT 13 10
ROOT
ATOM      1  C   UNL     1       5.183  11.882  -1.867  1.00  0.00    +0.083 A 
ATOM      2  C   UNL     1       5.774  12.438  -0.726  1.00  0.00    +0.143 A 
ATOM      3  C   UNL     1       5.985  11.501  -2.950  1.00  0.00    +0.018 A 
ATOM      4  C   UNL     1       7.159  12.591  -0.649  1.00  0.00    +0.048 A 
ATOM      5  C   UNL     1       7.370  11.672  -2.880  1.00  0.00    +0.001 A 
ATOM      6  C   UNL     1       7.954  12.213  -1.732  1.00  0.00    +0.004 A 
ENDROOT
BRANCH   1   7
ATOM      7  C   UNL     1       3.718  11.681  -1.937  1.00  0.00    +0.261 C 
ATOM      8  N   UNL     1       3.001  12.720  -1.395  1.00  0.00    -0.298 N 
ATOM      9  O   UNL     1       3.295  10.637  -2.414  1.00  0.00    -0.269 OA
ATOM     10  H   UNL     1       3.477  13.460  -0.898  1.00  0.00    +0.172 HD
BRANCH   8  11
ATOM     11  C   UNL     1       1.637  12.706  -1.324  1.00  0.00    +0.195 A 
ATOM     12  S   UNL     1       1.018  13.144   0.209  1.00  0.00    -0.024 S 
ATOM     13  C   UNL     1      -0.553  12.921  -0.401  1.00  0.00    +0.345 A 
ATOM     14  N   UNL     1       0.755  12.420  -2.250  1.00  0.00    -0.221 NA
ATOM     15  C   UNL     1      -0.518  12.538  -1.721  1.00  0.00    +0.212 A 
BRANCH  13  16
ATOM     16  N   UNL     1      -1.713  13.126   0.405  1.00  0.00    +0.076 N 
ATOM     17  O   UNL     1      -1.642  13.938   1.336  1.00  0.00    -0.257 OA
ATOM     18  O   UNL     1      -2.716  12.466   0.102  1.00  0.00    -0.257 OA
ENDBRANCH  13  16
ENDBRANCH   8  11
ENDBRANCH   1   7
BRANCH   2  19
ATOM     19  O   UNL     1       5.030  12.823   0.395  1.00  0.00    -0.426 OA
BRANCH  19  20
ATOM     20  C   UNL     1       4.928  14.201   0.557  1.00  0.00    +0.308 C 
ATOM     21  O   UNL     1       4.472  14.997  -0.257  1.00  0.00    -0.252 OA
ATOM     22  C   UNL     1       5.480  14.578   1.898  1.00  0.00    +0.139 C 
ENDBRANCH  19  20
ENDBRANCH   2  19
TORSDOF 5
ENDMDL
MODEL 2
REMARK VINA RESULT:    -5.953      3.597      6.981
REMARK INTER + INTRA:          -8.414
REMARK INTER:                  -7.630
REMARK INTRA:                  -0.785
REMARK UNBOUND:                -0.721
REMARK SMILES CC(=O)Oc1ccccc1C(=O)Nc1ncc([N+](=O)[O-])s1
REMARK SMILES IDX 10 1 5 2 9 3 6 4 8 5 7 6 11 7 13 8 12 9 14 11 21 12 17 13
REMARK SMILES IDX 15 14 16 15 18 16 19 17 20 18 4 19 2 20 3 21 1 22
REMARK H PARENT 13 10
ROOT
ATOM      1  C   UNL     1       2.603  13.823  -0.092  1.00  0.00    +0.083 A 
ATOM      2  C   UNL     1       2.962  13.044  -1.199  1.00  0.00    +0.143 A 
ATOM      3  C   UNL     1       1.265  13.878   0.314  1.00  0.00    +0.018 A 
ATOM      4  C   UNL     1       2.000  12.302  -1.885  1.00  0.00    +0.048 A 
ATOM      5  C   UNL     1       0.298  13.150  -0.384  1.00  0.00    +0.001 A 
ATOM      6  C   UNL     1       0.666  12.363  -1.478  1.00  0.00    +0.004 A 
ENDROOT
BRANCH   1   7
ATOM      7  C   UNL     1       3.627  14.580   0.663  1.00  0.00    +0.261 C 
ATOM      8  N   UNL     1       4.476  15.298  -0.144  1.00  0.00    -0.298 N 
ATOM      9  O   UNL     1       3.650  14.473   1.881  1.00  0.00    -0.269 OA
ATOM     10  H   UNL     1       4.440  15.182  -1.147  1.00  0.00    +0.172 HD
BRANCH   8  11
ATOM     11  C   UNL     1       5.516  16.028   0.358  1.00  0.00    +0.195 A 
ATOM     12  S   UNL     1       5.440  17.694  -0.023  1.00  0.00    -0.024 S 
ATOM     13  C   UNL     1       6.890  17.920   0.834  1.00  0.00    +0.345 A 
ATOM     14  N   UNL     1       6.536  15.641   1.083  1.00  0.00    -0.221 NA
ATOM     15  C   UNL     1       7.341  16.732   1.359  1.00  0.00    +0.212 A 
BRANCH  13  16
ATOM     16  N   UNL     1       7.504  19.202   0.955  1.00  0.00    +0.076 N 
ATOM     17  O   UNL     1       7.974  19.724  -0.064  1.00  0.00    -0.257 OA
ATOM     18  O   UNL     1       7.515  19.702   2.088  1.00  0.00    -0.257 OA
ENDBRANCH  13  16
ENDBRANCH   8  11
ENDBRANCH   1   7
BRANCH   2  19
ATOM     19  O   UNL     1       4.284  12.934  -1.644  1.00  0.00    -0.426 OA
BRANCH  19  20
ATOM     20  C   UNL     1       4.933  11.786  -1.203  1.00  0.00    +0.308 C 
ATOM     21  O   UNL     1       5.261  11.534  -0.048  1.00  0.00    -0.252 OA
ATOM     22  C   UNL     1       5.187  10.887  -2.375  1.00  0.00    +0.139 C 
ENDBRANCH  19  20
ENDBRANCH   2  19
TORSDOF 5
ENDMDL
MODEL 3
REMARK VINA RESULT:    -5.916      1.160      1.368
REMARK INTER + INTRA:          -8.366
REMARK INTER:                  -7.517
REMARK INTRA:                  -0.849
REMARK UNBOUND:                -0.721
REMARK SMILES CC(=O)Oc1ccccc1C(=O)Nc1ncc([N+](=O)[O-])s1
REMARK SMILES IDX 10 1 5 2 9 3 6 4 8 5 7 6 11 7 13 8 12 9 14 11 21 12 17 13
REMARK SMILES IDX 15 14 16 15 18 16 19 17 20 18 4 19 2 20 3 21 1 22
REMARK H PARENT 13 10
ROOT
ATOM      1  C   UNL     1       4.767  12.528  -2.220  1.00  0.00    +0.083 A 
ATOM      2  C   UNL     1       5.532  12.365  -1.059  1.00  0.00    +0.143 A 
ATOM      3  C   UNL     1       5.316  12.201  -3.466  1.00  0.00    +0.018 A 
ATOM      4  C   UNL     1       6.828  11.854  -1.131  1.00  0.00    +0.048 A 
ATOM      5  C   UNL     1       6.621  11.707  -3.540  1.00  0.00    +0.001 A 
ATOM      6  C   UNL     1       7.372  11.532  -2.376  1.00  0.00    +0.004 A 
ENDROOT
BRANCH   1   7
ATOM      7  C   UNL     1       3.377  13.032  -2.145  1.00  0.00    +0.261 C 
ATOM      8  N   UNL     1       2.496  12.119  -1.616  1.00  0.00    -0.298 N 
ATOM      9  O   UNL     1       3.139  14.151  -2.576  1.00  0.00    -0.269 OA
ATOM     10  H   UNL     1       2.797  11.172  -1.434  1.00  0.00    +0.172 HD
BRANCH   8  11
ATOM     11  C   UNL     1       1.160  12.376  -1.501  1.00  0.00    +0.195 A 
ATOM     12  S   UNL     1       0.708  13.032   0.012  1.00  0.00    -0.024 S 
ATOM     13  C   UNL     1      -0.903  13.078  -0.529  1.00  0.00    +0.345 A 
ATOM     14  N   UNL     1       0.198  12.203  -2.373  1.00  0.00    -0.221 NA
ATOM     15  C   UNL     1      -1.003  12.604  -1.815  1.00  0.00    +0.212 A 
BRANCH  13  16
ATOM     16  N   UNL     1      -1.963  13.561   0.295  1.00  0.00    +0.076 N 
ATOM     17  O   UNL     1      -3.007  12.899   0.352  1.00  0.00    -0.257 OA
ATOM     18  O   UNL     1      -1.751  14.620   0.900  1.00  0.00    -0.257 OA
ENDBRANCH  13  16
ENDBRANCH   8  11
ENDBRANCH   1   7
BRANCH   2  19
ATOM     19  O   UNL     1       5.035  12.657   0.216  1.00  0.00    -0.426 OA
BRANCH  19  20
ATOM     20  C   UNL     1       5.269  13.966   0.625  1.00  0.00    +0.308 C 
ATOM     21  O   UNL     1       6.340  14.561   0.580  1.00  0.00    -0.252 OA
ATOM     22  C   UNL     1       3.993  14.550   1.150  1.00  0.00    +0.139 C 
ENDBRANCH  19  20
ENDBRANCH   2  19
TORSDOF 5
ENDMDL
MODEL 4
REMARK VINA RESULT:    -5.892      1.868      3.256
REMARK INTER + INTRA:          -8.336
REMARK INTER:                  -7.419
REMARK INTRA:                  -0.917
REMARK UNBOUND:                -0.721
REMARK SMILES CC(=O)Oc1ccccc1C(=O)Nc1ncc([N+](=O)[O-])s1
REMARK SMILES IDX 10 1 5 2 9 3 6 4 8 5 7 6 11 7 13 8 12 9 14 11 21 12 17 13
REMARK SMILES IDX 15 14 16 15 18 16 19 17 20 18 4 19 2 20 3 21 1 22
REMARK H PARENT 13 10
ROOT
ATOM      1  C   UNL     1       3.589  14.254  -0.445  1.00  0.00    +0.083 A 
ATOM      2  C   UNL     1       4.491  13.184  -0.442  1.00  0.00    +0.143 A 
ATOM      3  C   UNL     1       3.970  15.486   0.100  1.00  0.00    +0.018 A 
ATOM      4  C   UNL     1       5.777  13.343   0.076  1.00  0.00    +0.048 A 
ATOM      5  C   UNL     1       5.251  15.640   0.636  1.00  0.00    +0.001 A 
ATOM      6  C   UNL     1       6.151  14.572   0.621  1.00  0.00    +0.004 A 
ENDROOT
BRANCH   1   7
ATOM      7  C   UNL     1       2.238  14.101  -1.031  1.00  0.00    +0.261 C 
ATOM      8  N   UNL     1       1.581  12.975  -0.596  1.00  0.00    -0.298 N 
ATOM      9  O   UNL     1       1.857  14.933  -1.843  1.00  0.00    -0.269 OA
ATOM     10  H   UNL     1       2.068  12.291  -0.035  1.00  0.00    +0.172 HD
BRANCH   8  11
ATOM     11  C   UNL     1       0.340  12.632  -1.051  1.00  0.00    +0.195 A 
ATOM     12  S   UNL     1      -0.901  12.825   0.109  1.00  0.00    -0.024 S 
ATOM     13  C   UNL     1      -2.018  12.268  -1.046  1.00  0.00    +0.345 A 
ATOM     14  N   UNL     1      -0.025  12.195  -2.231  1.00  0.00    -0.221 NA
ATOM     15  C   UNL     1      -1.392  11.976  -2.234  1.00  0.00    +0.212 A 
BRANCH  13  16
ATOM     16  N   UNL     1      -3.409  12.146  -0.754  1.00  0.00    +0.076 N 
ATOM     17  O   UNL     1      -3.738  11.620   0.317  1.00  0.00    -0.257 OA
ATOM     18  O   UNL     1      -4.191  12.586  -1.607  1.00  0.00    -0.257 OA
ENDBRANCH  13  16
ENDBRANCH   8  11
ENDBRANCH   1   7
BRANCH   2  19
ATOM     19  O   UNL     1       4.176  11.933  -0.986  1.00  0.00    -0.426 OA
BRANCH  19  20
ATOM     20  C   UNL     1       4.804  11.674  -2.200  1.00  0.00    +0.308 C 
ATOM     21  O   UNL     1       4.788  12.391  -3.195  1.00  0.00    -0.252 OA
ATOM     22  C   UNL     1       5.508  10.354  -2.114  1.00  0.00    +0.139 C 
ENDBRANCH  19  20
ENDBRANCH   2  19
TORSDOF 5
ENDMDL
MODEL 5
REMARK VINA RESULT:    -5.654      1.812      2.178
REMARK INTER + INTRA:          -8.027
REMARK INTER:                  -7.123
REMARK INTRA:                  -0.904
REMARK UNBOUND:                -0.721
REMARK SMILES CC(=O)Oc1ccccc1C(=O)Nc1ncc([N+](=O)[O-])s1
REMARK SMILES IDX 10 1 5 2 9 3 6 4 8 5 7 6 11 7 13 8 12 9 14 11 21 12 17 13
REMARK SMILES IDX 15 14 16 15 18 16 19 17 20 18 4 19 2 20 3 21 1 22
REMARK H PARENT 13 10
ROOT
ATOM      1  C   UNL     1       3.969  12.707  -1.756  1.00  0.00    +0.083 A 
ATOM      2  C   UNL     1       4.710  12.866  -0.579  1.00  0.00    +0.143 A 
ATOM      3  C   UNL     1       4.550  12.076  -2.863  1.00  0.00    +0.018 A 
ATOM      4  C   UNL     1       6.014  12.376  -0.491  1.00  0.00    +0.048 A 
ATOM      5  C   UNL     1       5.862  11.603  -2.781  1.00  0.00    +0.001 A 
ATOM      6  C   UNL     1       6.589  11.751  -1.598  1.00  0.00    +0.004 A 
ENDROOT
BRANCH   1   7
ATOM      7  C   UNL     1       2.572  13.189  -1.841  1.00  0.00    +0.261 C 
ATOM      8  N   UNL     1       1.747  12.631  -0.894  1.00  0.00    -0.298 N 
ATOM      9  O   UNL     1       2.280  13.975  -2.731  1.00  0.00    -0.269 OA
ATOM     10  H   UNL     1       2.084  11.880  -0.309  1.00  0.00    +0.172 HD
BRANCH   8  11
ATOM     11  C   UNL     1       0.412  12.913  -0.832  1.00  0.00    +0.195 A 
ATOM     12  S   UNL     1      -0.543  11.983  -1.902  1.00  0.00    -0.024 S 
ATOM     13  C   UNL     1      -1.919  12.798  -1.325  1.00  0.00    +0.345 A 
ATOM     14  N   UNL     1      -0.226  13.772  -0.076  1.00  0.00    -0.221 NA
ATOM     15  C   UNL     1      -1.579  13.715  -0.360  1.00  0.00    +0.212 A 
BRANCH  13  16
ATOM     16  N   UNL     1      -3.227  12.515  -1.821  1.00  0.00    +0.076 N 
ATOM     17  O   UNL     1      -4.137  12.335  -1.001  1.00  0.00    -0.257 OA
ATOM     18  O   UNL     1      -3.353  12.476  -3.052  1.00  0.00    -0.257 OA
ENDBRANCH  13  16
ENDBRANCH   8  11
ENDBRANCH   1   7
BRANCH   2  19
ATOM     19  O   UNL     1       4.181  13.472   0.566  1.00  0.00    -0.426 OA
BRANCH  19  20
ATOM     20  C   UNL     1       4.872  14.609   0.971  1.00  0.00    +0.308 C 
ATOM     21  O   UNL     1       5.620  14.699   1.939  1.00  0.00    -0.252 OA
ATOM     22  C   UNL     1       4.552  15.735   0.036  1.00  0.00    +0.139 C 
ENDBRANCH  19  20
ENDBRANCH   2  19
TORSDOF 5
ENDMDL
MODEL 6
REMARK VINA RESULT:    -5.649      2.393      6.925
REMARK INTER + INTRA:          -8.021
REMARK INTER:                  -7.272
REMARK INTRA:                  -0.749
REMARK UNBOUND:                -0.721
REMARK SMILES CC(=O)Oc1ccccc1C(=O)Nc1ncc([N+](=O)[O-])s1
REMARK SMILES IDX 10 1 5 2 9 3 6 4 8 5 7 6 11 7 13 8 12 9 14 11 21 12 17 13
REMARK SMILES IDX 15 14 16 15 18 16 19 17 20 18 4 19 2 20 3 21 1 22
REMARK H PARENT 13 10
ROOT
ATOM      1  C   UNL     1      -0.378  12.694  -2.653  1.00  0.00    +0.083 A 
ATOM      2  C   UNL     1      -1.200  12.192  -1.636  1.00  0.00    +0.143 A 
ATOM      3  C   UNL     1      -0.869  12.788  -3.961  1.00  0.00    +0.018 A 
ATOM      4  C   UNL     1      -2.514  11.811  -1.911  1.00  0.00    +0.048 A 
ATOM      5  C   UNL     1      -2.179  12.389  -4.240  1.00  0.00    +0.001 A 
ATOM      6  C   UNL     1      -2.998  11.904  -3.217  1.00  0.00    +0.004 A 
ENDROOT
BRANCH   1   7
ATOM      7  C   UNL     1       1.003  13.137  -2.358  1.00  0.00    +0.261 C 
ATOM      8  N   UNL     1       1.789  12.146  -1.821  1.00  0.00    -0.298 N 
ATOM      9  O   UNL     1       1.298  14.305  -2.572  1.00  0.00    -0.269 OA
ATOM     10  H   UNL     1       1.378  11.262  -1.557  1.00  0.00    +0.172 HD
BRANCH   8  11
ATOM     11  C   UNL     1       3.082  12.366  -1.441  1.00  0.00    +0.195 A 
ATOM     12  S   UNL     1       4.236  11.546  -2.401  1.00  0.00    -0.024 S 
ATOM     13  C   UNL     1       5.464  12.222  -1.439  1.00  0.00    +0.345 A 
ATOM     14  N   UNL     1       3.552  13.109  -0.470  1.00  0.00    -0.221 NA
ATOM     15  C   UNL     1       4.933  13.027  -0.459  1.00  0.00    +0.212 A 
BRANCH  13  16
ATOM     16  N   UNL     1       6.844  11.950  -1.675  1.00  0.00    +0.076 N 
ATOM     17  O   UNL     1       7.671  12.370  -0.855  1.00  0.00    -0.257 OA
ATOM     18  O   UNL     1       7.111  11.302  -2.696  1.00  0.00    -0.257 OA
ENDBRANCH  13  16
ENDBRANCH   8  11
ENDBRANCH   1   7
BRANCH   2  19
ATOM     19  O   UNL     1      -0.774  12.088  -0.308  1.00  0.00    -0.426 OA
BRANCH  19  20
ATOM     20  C   UNL     1      -1.166  13.155   0.494  1.00  0.00    +0.308 C 
ATOM     21  O   UNL     1      -2.311  13.418   0.845  1.00  0.00    -0.252 OA
ATOM     22  C   UNL     1       0.044  13.958   0.865  1.00  0.00    +0.139 C 
ENDBRANCH  19  20
ENDBRANCH   2  19
TORSDOF 5
ENDMDL
MODEL 7
REMARK VINA RESULT:    -5.636      3.384      4.918
REMARK INTER + INTRA:          -8.004
REMARK INTER:                  -6.936
REMARK INTRA:                  -1.068
REMARK UNBOUND:                -0.721
REMARK SMILES CC(=O)Oc1ccccc1C(=O)Nc1ncc([N+](=O)[O-])s1
REMARK SMILES IDX 10 1 5 2 9 3 6 4 8 5 7 6 11 7 13 8 12 9 14 11 21 12 17 13
REMARK SMILES IDX 15 14 16 15 18 16 19 17 20 18 4 19 2 20 3 21 1 22
REMARK H PARENT 13 10
ROOT
ATOM      1  C   UNL     1       5.591  13.032  -0.384  1.00  0.00    +0.083 A 
ATOM      2  C   UNL     1       4.541  12.228  -0.845  1.00  0.00    +0.143 A 
ATOM      3  C   UNL     1       6.916  12.614  -0.561  1.00  0.00    +0.018 A 
ATOM      4  C   UNL     1       4.806  11.026  -1.502  1.00  0.00    +0.048 A 
ATOM      5  C   UNL     1       7.180  11.401  -1.203  1.00  0.00    +0.001 A 
ATOM      6  C   UNL     1       6.128  10.612  -1.673  1.00  0.00    +0.004 A 
ENDROOT
BRANCH   1   7
ATOM      7  C   UNL     1       5.317  14.327   0.278  1.00  0.00    +0.261 C 
ATOM      8  N   UNL     1       4.545  15.172  -0.482  1.00  0.00    -0.298 N 
ATOM      9  O   UNL     1       5.812  14.536   1.377  1.00  0.00    -0.269 OA
ATOM     10  H   UNL     1       4.324  14.934  -1.438  1.00  0.00    +0.172 HD
BRANCH   8  11
ATOM     11  C   UNL     1       4.216  16.431  -0.067  1.00  0.00    +0.195 A 
ATOM     12  S   UNL     1       2.830  16.491   0.933  1.00  0.00    -0.024 S 
ATOM     13  C   UNL     1       3.021  18.178   1.036  1.00  0.00    +0.345 A 
ATOM     14  N   UNL     1       4.808  17.574  -0.315  1.00  0.00    -0.221 NA
ATOM     15  C   UNL     1       4.118  18.593   0.318  1.00  0.00    +0.212 A 
BRANCH  13  16
ATOM     16  N   UNL     1       2.126  18.995   1.789  1.00  0.00    +0.076 N 
ATOM     17  O   UNL     1       2.412  20.190   1.939  1.00  0.00    -0.257 OA
ATOM     18  O   UNL     1       1.116  18.436   2.236  1.00  0.00    -0.257 OA
ENDBRANCH  13  16
ENDBRANCH   8  11
ENDBRANCH   1   7
BRANCH   2  19
ATOM     19  O   UNL     1       3.198  12.597  -0.714  1.00  0.00    -0.426 OA
BRANCH  19  20
ATOM     20  C   UNL     1       2.575  12.892  -1.922  1.00  0.00    +0.308 C 
ATOM     21  O   UNL     1       3.011  13.622  -2.806  1.00  0.00    -0.252 OA
ATOM     22  C   UNL     1       1.258  12.179  -1.979  1.00  0.00    +0.139 C 
ENDBRANCH  19  20
ENDBRANCH   2  19
TORSDOF 5
ENDMDL
MODEL 8
REMARK VINA RESULT:    -5.632      2.027      3.608
REMARK INTER + INTRA:          -8.000
REMARK INTER:                  -6.820
REMARK INTRA:                  -1.179
REMARK UNBOUND:                -0.721
REMARK SMILES CC(=O)Oc1ccccc1C(=O)Nc1ncc([N+](=O)[O-])s1
REMARK SMILES IDX 10 1 5 2 9 3 6 4 8 5 7 6 11 7 13 8 12 9 14 11 21 12 17 13
REMARK SMILES IDX 15 14 16 15 18 16 19 17 20 18 4 19 2 20 3 21 1 22
REMARK H PARENT 13 10
ROOT
ATOM      1  C   UNL     1       3.643  14.240   0.634  1.00  0.00    +0.083 A 
ATOM      2  C   UNL     1       4.656  13.429   0.109  1.00  0.00    +0.143 A 
ATOM      3  C   UNL     1       3.976  15.427   1.298  1.00  0.00    +0.018 A 
ATOM      4  C   UNL     1       5.995  13.807   0.220  1.00  0.00    +0.048 A 
ATOM      5  C   UNL     1       5.318  15.796   1.425  1.00  0.00    +0.001 A 
ATOM      6  C   UNL     1       6.322  14.990   0.886  1.00  0.00    +0.004 A 
ENDROOT
BRANCH   1   7
ATOM      7  C   UNL     1       2.220  13.862   0.483  1.00  0.00    +0.261 C 
ATOM      8  N   UNL     1       1.721  14.114  -0.772  1.00  0.00    -0.298 N 
ATOM      9  O   UNL     1       1.629  13.417   1.457  1.00  0.00    -0.269 OA
ATOM     10  H   UNL     1       2.276  14.624  -1.444  1.00  0.00    +0.172 HD
BRANCH   8  11
ATOM     11  C   UNL     1       0.416  13.876  -1.100  1.00  0.00    +0.195 A 
ATOM     12  S   UNL     1       0.117  12.279  -1.634  1.00  0.00    -0.024 S 
ATOM     13  C   UNL     1      -1.520  12.691  -1.836  1.00  0.00    +0.345 A 
ATOM     14  N   UNL     1      -0.617  14.680  -1.055  1.00  0.00    -0.221 NA
ATOM     15  C   UNL     1      -1.744  14.002  -1.485  1.00  0.00    +0.212 A 
BRANCH  13  16
ATOM     16  N   UNL     1      -2.483  11.752  -2.309  1.00  0.00    +0.076 N 
ATOM     17  O   UNL     1      -3.009  10.989  -1.488  1.00  0.00    -0.257 OA
ATOM     18  O   UNL     1      -2.724  11.775  -3.524  1.00  0.00    -0.257 OA
ENDBRANCH  13  16
ENDBRANCH   8  11
ENDBRANCH   1   7
BRANCH   2  19
ATOM     19  O   UNL     1       4.388  12.240  -0.579  1.00  0.00    -0.426 OA
BRANCH  19  20
ATOM     20  C   UNL     1       4.512  12.349  -1.959  1.00  0.00    +0.308 C 
ATOM     21  O   UNL     1       3.940  13.160  -2.679  1.00  0.00    -0.252 OA
ATOM     22  C   UNL     1       5.461  11.297  -2.449  1.00  0.00    +0.139 C 
ENDBRANCH  19  20
ENDBRANCH   2  19
TORSDOF 5
ENDMDL
MODEL 9
REMARK VINA RESULT:    -5.384      2.955      6.750
REMARK INTER + INTRA:          -7.679
REMARK INTER:                  -6.790
REMARK INTRA:                  -0.889
REMARK UNBOUND:                -0.721
REMARK SMILES CC(=O)Oc1ccccc1C(=O)Nc1ncc([N+](=O)[O-])s1
REMARK SMILES IDX 10 1 5 2 9 3 6 4 8 5 7 6 11 7 13 8 12 9 14 11 21 12 17 13
REMARK SMILES IDX 15 14 16 15 18 16 19 17 20 18 4 19 2 20 3 21 1 22
REMARK H PARENT 13 10
ROOT
ATOM      1  C   UNL     1       0.191  12.936  -0.850  1.00  0.00    +0.083 A 
ATOM      2  C   UNL     1      -0.657  13.028   0.260  1.00  0.00    +0.143 A 
ATOM      3  C   UNL     1      -0.227  12.236  -1.988  1.00  0.00    +0.018 A 
ATOM      4  C   UNL     1      -1.927  12.450   0.231  1.00  0.00    +0.048 A 
ATOM      5  C   UNL     1      -1.492  11.642  -2.010  1.00  0.00    +0.001 A 
ATOM      6  C   UNL     1      -2.338  11.751  -0.905  1.00  0.00    +0.004 A 
ENDROOT
BRANCH   1   7
ATOM      7  C   UNL     1       1.523  13.582  -0.838  1.00  0.00    +0.261 C 
ATOM      8  N   UNL     1       2.291  13.223   0.243  1.00  0.00    -0.298 N 
ATOM      9  O   UNL     1       1.795  14.372  -1.731  1.00  0.00    -0.269 OA
ATOM     10  H   UNL     1       1.890  12.673   0.989  1.00  0.00    +0.172 HD
BRANCH   8  11
ATOM     11  C   UNL     1       3.536  13.743   0.459  1.00  0.00    +0.195 A 
ATOM     12  S   UNL     1       3.538  15.163   1.412  1.00  0.00    -0.024 S 
ATOM     13  C   UNL     1       5.231  15.217   1.264  1.00  0.00    +0.345 A 
ATOM     14  N   UNL     1       4.704  13.309   0.053  1.00  0.00    -0.221 NA
ATOM     15  C   UNL     1       5.692  14.162   0.512  1.00  0.00    +0.212 A 
BRANCH  13  16
ATOM     16  N   UNL     1       6.009  16.248   1.868  1.00  0.00    +0.076 N 
ATOM     17  O   UNL     1       7.084  16.556   1.338  1.00  0.00    -0.257 OA
ATOM     18  O   UNL     1       5.540  16.764   2.891  1.00  0.00    -0.257 OA
ENDBRANCH  13  16
ENDBRANCH   8  11
ENDBRANCH   1   7
BRANCH   2  19
ATOM     19  O   UNL     1      -0.305  13.727   1.420  1.00  0.00    -0.426 OA
BRANCH  19  20
ATOM     20  C   UNL     1      -1.265  14.640   1.841  1.00  0.00    +0.308 C 
ATOM     21  O   UNL     1      -2.036  14.501   2.785  1.00  0.00    -0.252 OA
ATOM     22  C   UNL     1      -1.226  15.839   0.944  1.00  0.00    +0.139 C 
ENDBRANCH  19  20
ENDBRANCH   2  19
TORSDOF 5
ENDMDL
