MODEL 1
REMARK VINA RESULT:    -7.975      0.000      0.000
REMARK INTER + INTRA:         -11.153
REMARK INTER:                 -10.307
REMARK INTRA:                  -0.847
REMARK UNBOUND:                -0.847
REMARK SMILES CC(=O)Oc1ccccc1C(=O)Nc1ncc([N+](=O)[O-])s1
REMARK SMILES IDX 10 1 5 2 9 3 6 4 8 5 7 6 11 7 13 8 12 9 14 11 21 12 17 13
REMARK SMILES IDX 15 14 16 15 18 16 19 17 20 18 4 19 2 20 3 21 1 22
REMARK H PARENT 13 10
ROOT
ATOM      1  C   UNL     1     -38.150   7.365  11.068  1.00  0.00    +0.083 A 
ATOM      2  C   UNL     1     -39.138   6.500  10.583  1.00  0.00    +0.143 A 
ATOM      3  C   UNL     1     -37.326   6.957  12.124  1.00  0.00    +0.018 A 
ATOM      4  C   UNL     1     -39.290   5.223  11.126  1.00  0.00    +0.048 A 
ATOM      5  C   UNL     1     -37.491   5.686  12.681  1.00  0.00    +0.001 A 
ATOM      6  C   UNL     1     -38.468   4.822  12.181  1.00  0.00    +0.004 A 
ENDROOT
BRANCH   1   7
ATOM      7  C   UNL     1     -37.958   8.705  10.469  1.00  0.00    +0.261 C 
ATOM      8  N   UNL     1     -39.002   9.564  10.714  1.00  0.00    -0.298 N 
ATOM      9  O   UNL     1     -36.952   8.907   9.804  1.00  0.00    -0.269 OA
ATOM     10  H   UNL     1     -39.845   9.224  11.155  1.00  0.00    +0.172 HD
BRANCH   8  11
ATOM     11  C   UNL     1     -39.036  10.834  10.211  1.00  0.00    +0.195 A 
ATOM     12  S   UNL     1     -40.012  11.001   8.817  1.00  0.00    -0.024 S 
ATOM     13  C   UNL     1     -39.607  12.651   8.774  1.00  0.00    +0.345 A 
ATOM     14  N   UNL     1     -38.445  11.920  10.644  1.00  0.00    -0.221 NA
ATOM     15  C   UNL     1     -38.767  12.978   9.813  1.00  0.00    +0.212 A 
BRANCH  13  16
ATOM     16  N   UNL     1     -40.109  13.527   7.766  1.00  0.00    +0.076 N 
ATOM     17  O   UNL     1     -41.335  13.661   7.666  1.00  0.00    -0.257 OA
ATOM     18  O   UNL     1     -39.264  14.095   7.061  1.00  0.00    -0.257 OA
ENDBRANCH  13  16
ENDBRANCH   8  11
ENDBRANCH   1   7
BRANCH   2  19
ATOM     19  O   UNL     1     -39.981   6.842   9.520  1.00  0.00    -0.426 OA
BRANCH  19  20
ATOM     20  C   UNL     1     -39.598   6.294   8.300  1.00  0.00    +0.308 C 
ATOM     21  O   UNL     1     -38.499   5.824   8.026  1.00  0.00    -0.252 OA
ATOM     22  C   UNL     1     -40.750   6.377   7.344  1.00  0.00    +0.139 C 
ENDBRANCH  19  20
ENDBRANCH   2  19
TORSDOF 5
ENDMDL
MODEL 2
REMARK VINA RESULT:    -7.710      2.671      7.452
REMARK INTER + INTRA:         -10.811
REMARK INTER:                 -10.101
REMARK INTRA:                  -0.710
REMARK UNBOUND:                -0.847
REMARK SMILES CC(=O)Oc1ccccc1C(=O)Nc1ncc([N+](=O)[O-])s1
REMARK SMILES IDX 10 1 5 2 9 3 6 4 8 5 7 6 11 7 13 8 12 9 14 11 21 12 17 13
REMARK SMILES IDX 15 14 16 15 18 16 19 17 20 18 4 19 2 20 3 21 1 22
REMARK H PARENT 13 10
ROOT
ATOM      1  C   UNL     1     -40.909  13.810  10.698  1.00  0.00    +0.083 A 
ATOM      2  C   UNL     1     -41.167  14.737   9.682  1.00  0.00    +0.143 A 
ATOM      3  C   UNL     1     -40.710  14.255  12.011  1.00  0.00    +0.018 A 
ATOM      4  C   UNL     1     -41.256  16.100   9.972  1.00  0.00    +0.048 A 
ATOM      5  C   UNL     1     -40.780  15.621  12.298  1.00  0.00    +0.001 A 
ATOM      6  C   UNL     1     -41.054  16.538  11.282  1.00  0.00    +0.004 A 
ENDROOT
BRANCH   1   7
ATOM      7  C   UNL     1     -40.854  12.361  10.403  1.00  0.00    +0.261 C 
ATOM      8  N   UNL     1     -39.706  11.983   9.749  1.00  0.00    -0.298 N 
ATOM      9  O   UNL     1     -41.810  11.665  10.717  1.00  0.00    -0.269 OA
ATOM     10  H   UNL     1     -39.060  12.683   9.415  1.00  0.00    +0.172 HD
BRANCH   8  11
ATOM     11  C   UNL     1     -39.484  10.696   9.349  1.00  0.00    +0.195 A 
ATOM     12  S   UNL     1     -38.156   9.949  10.125  1.00  0.00    -0.024 S 
ATOM     13  C   UNL     1     -38.465   8.542   9.222  1.00  0.00    +0.345 A 
ATOM     14  N   UNL     1     -40.139   9.966   8.480  1.00  0.00    -0.221 NA
ATOM     15  C   UNL     1     -39.551   8.716   8.397  1.00  0.00    +0.212 A 
BRANCH  13  16
ATOM     16  N   UNL     1     -37.665   7.368   9.354  1.00  0.00    +0.076 N 
ATOM     17  O   UNL     1     -38.042   6.336   8.783  1.00  0.00    -0.257 OA
ATOM     18  O   UNL     1     -36.638   7.476  10.037  1.00  0.00    -0.257 OA
ENDBRANCH  13  16
ENDBRANCH   8  11
ENDBRANCH   1   7
BRANCH   2  19
ATOM     19  O   UNL     1     -41.391  14.355   8.355  1.00  0.00    -0.426 OA
BRANCH  19  20
ATOM     20  C   UNL     1     -40.543  14.972   7.441  1.00  0.00    +0.308 C 
ATOM     21  O   UNL     1     -40.836  15.890   6.683  1.00  0.00    -0.252 OA
ATOM     22  C   UNL     1     -39.192  14.327   7.514  1.00  0.00    +0.139 C 
ENDBRANCH  19  20
ENDBRANCH   2  19
TORSDOF 5
ENDMDL
MODEL 3
REMARK VINA RESULT:    -7.489      2.745      7.427
REMARK INTER + INTRA:         -10.525
REMARK INTER:                  -9.593
REMARK INTRA:                  -0.932
REMARK UNBOUND:                -0.847
REMARK SMILES CC(=O)Oc1ccccc1C(=O)Nc1ncc([N+](=O)[O-])s1
REMARK SMILES IDX 10 1 5 2 9 3 6 4 8 5 7 6 11 7 13 8 12 9 14 11 21 12 17 13
REMARK SMILES IDX 15 14 16 15 18 16 19 17 20 18 4 19 2 20 3 21 1 22
REMARK H PARENT 13 10
ROOT
ATOM      1  C   UNL     1     -40.052  13.193   9.007  1.00  0.00    +0.083 A 
ATOM      2  C   UNL     1     -41.129  13.790   9.673  1.00  0.00    +0.143 A 
ATOM      3  C   UNL     1     -39.488  13.823   7.891  1.00  0.00    +0.018 A 
ATOM      4  C   UNL     1     -41.629  15.022   9.248  1.00  0.00    +0.048 A 
ATOM      5  C   UNL     1     -40.001  15.048   7.455  1.00  0.00    +0.001 A 
ATOM      6  C   UNL     1     -41.066  15.645   8.133  1.00  0.00    +0.004 A 
ENDROOT
BRANCH   1   7
ATOM      7  C   UNL     1     -39.492  11.906   9.478  1.00  0.00    +0.261 C 
ATOM      8  N   UNL     1     -40.313  10.833   9.227  1.00  0.00    -0.298 N 
ATOM      9  O   UNL     1     -38.416  11.916  10.059  1.00  0.00    -0.269 OA
ATOM     10  H   UNL     1     -41.246  10.981   8.871  1.00  0.00    +0.172 HD
BRANCH   8  11
ATOM     11  C   UNL     1     -39.996   9.564   9.622  1.00  0.00    +0.195 A 
ATOM     12  S   UNL     1     -39.364   8.586   8.370  1.00  0.00    -0.024 S 
ATOM     13  C   UNL     1     -39.226   7.310   9.485  1.00  0.00    +0.345 A 
ATOM     14  N   UNL     1     -40.098   9.007  10.804  1.00  0.00    -0.221 NA
ATOM     15  C   UNL     1     -39.658   7.697  10.732  1.00  0.00    +0.212 A 
BRANCH  13  16
ATOM     16  N   UNL     1     -38.718   6.030   9.110  1.00  0.00    +0.076 N 
ATOM     17  O   UNL     1     -38.689   5.138   9.968  1.00  0.00    -0.257 OA
ATOM     18  O   UNL     1     -38.344   5.909   7.936  1.00  0.00    -0.257 OA
ENDBRANCH  13  16
ENDBRANCH   8  11
ENDBRANCH   1   7
BRANCH   2  19
ATOM     19  O   UNL     1     -41.725  13.219  10.803  1.00  0.00    -0.426 OA
BRANCH  19  20
ATOM     20  C   UNL     1     -41.303  13.778  12.005  1.00  0.00    +0.308 C 
ATOM     21  O   UNL     1     -40.146  13.851  12.406  1.00  0.00    -0.252 OA
ATOM     22  C   UNL     1     -42.498  14.280  12.757  1.00  0.00    +0.139 C 
ENDBRANCH  19  20
ENDBRANCH   2  19
TORSDOF 5
ENDMDL
MODEL 4
REMARK VINA RESULT:    -7.368      5.594      8.034
REMARK INTER + INTRA:         -10.369
REMARK INTER:                  -9.351
REMARK INTRA:                  -1.018
REMARK UNBOUND:                -0.847
REMARK SMILES CC(=O)Oc1ccccc1C(=O)Nc1ncc([N+](=O)[O-])s1
REMARK SMILES IDX 10 1 5 2 9 3 6 4 8 5 7 6 11 7 13 8 12 9 14 11 21 12 17 13
REMARK SMILES IDX 15 14 16 15 18 16 19 17 20 18 4 19 2 20 3 21 1 22
REMARK H PARENT 13 10
ROOT
ATOM      1  C   UNL     1     -41.202  13.578   9.075  1.00  0.00    +0.083 A 
ATOM      2  C   UNL     1     -40.734  13.768  10.381  1.00  0.00    +0.143 A 
ATOM      3  C   UNL     1     -41.276  12.284   8.545  1.00  0.00    +0.018 A 
ATOM      4  C   UNL     1     -40.366  12.675  11.168  1.00  0.00    +0.048 A 
ATOM      5  C   UNL     1     -40.890  11.192   9.326  1.00  0.00    +0.001 A 
ATOM      6  C   UNL     1     -40.439  11.388  10.633  1.00  0.00    +0.004 A 
ENDROOT
BRANCH   1   7
ATOM      7  C   UNL     1     -41.631  14.730   8.252  1.00  0.00    +0.261 C 
ATOM      8  N   UNL     1     -42.532  15.548   8.890  1.00  0.00    -0.298 N 
ATOM      9  O   UNL     1     -41.195  14.827   7.113  1.00  0.00    -0.269 OA
ATOM     10  H   UNL     1     -42.924  15.273   9.779  1.00  0.00    +0.172 HD
BRANCH   8  11
ATOM     11  C   UNL     1     -43.082  16.642   8.283  1.00  0.00    +0.195 A 
ATOM     12  S   UNL     1     -42.072  18.022   8.297  1.00  0.00    -0.024 S 
ATOM     13  C   UNL     1     -43.286  18.874   7.467  1.00  0.00    +0.345 A 
ATOM     14  N   UNL     1     -44.245  16.775   7.697  1.00  0.00    -0.221 NA
ATOM     15  C   UNL     1     -44.374  18.069   7.224  1.00  0.00    +0.212 A 
BRANCH  13  16
ATOM     16  N   UNL     1     -43.131  20.244   7.098  1.00  0.00    +0.076 N 
ATOM     17  O   UNL     1     -43.985  21.053   7.481  1.00  0.00    -0.257 OA
ATOM     18  O   UNL     1     -42.135  20.520   6.416  1.00  0.00    -0.257 OA
ENDBRANCH  13  16
ENDBRANCH   8  11
ENDBRANCH   1   7
BRANCH   2  19
ATOM     19  O   UNL     1     -40.652  15.032  10.974  1.00  0.00    -0.426 OA
BRANCH  19  20
ATOM     20  C   UNL     1     -41.562  15.230  12.007  1.00  0.00    +0.308 C 
ATOM     21  O   UNL     1     -42.767  15.010  11.966  1.00  0.00    -0.252 OA
ATOM     22  C   UNL     1     -40.836  15.772  13.201  1.00  0.00    +0.139 C 
ENDBRANCH  19  20
ENDBRANCH   2  19
TORSDOF 5
ENDMDL
MODEL 5
REMARK VINA RESULT:    -7.332      1.302      1.596
REMARK INTER + INTRA:         -10.322
REMARK INTER:                  -9.377
REMARK INTRA:                  -0.945
REMARK UNBOUND:                -0.847
REMARK SMILES CC(=O)Oc1ccccc1C(=O)Nc1ncc([N+](=O)[O-])s1
REMARK SMILES IDX 10 1 5 2 9 3 6 4 8 5 7 6 11 7 13 8 12 9 14 11 21 12 17 13
REMARK SMILES IDX 15 14 16 15 18 16 19 17 20 18 4 19 2 20 3 21 1 22
REMARK H PARENT 13 10
ROOT
ATOM      1  C   UNL     1     -39.305   7.747  11.741  1.00  0.00    +0.083 A 
ATOM      2  C   UNL     1     -38.656   6.941  10.798  1.00  0.00    +0.143 A 
ATOM      3  C   UNL     1     -39.439   7.301  13.061  1.00  0.00    +0.018 A 
ATOM      4  C   UNL     1     -38.119   5.707  11.170  1.00  0.00    +0.048 A 
ATOM      5  C   UNL     1     -38.918   6.058  13.429  1.00  0.00    +0.001 A 
ATOM      6  C   UNL     1     -38.258   5.266  12.486  1.00  0.00    +0.004 A 
ENDROOT
BRANCH   1   7
ATOM      7  C   UNL     1     -39.840   9.073  11.360  1.00  0.00    +0.261 C 
ATOM      8  N   UNL     1     -38.949   9.832  10.639  1.00  0.00    -0.298 N 
ATOM      9  O   UNL     1     -40.963   9.378  11.737  1.00  0.00    -0.269 OA
ATOM     10  H   UNL     1     -37.997   9.518  10.522  1.00  0.00    +0.172 HD
BRANCH   8  11
ATOM     11  C   UNL     1     -39.238  11.103  10.230  1.00  0.00    +0.195 A 
ATOM     12  S   UNL     1     -39.813  11.200   8.623  1.00  0.00    -0.024 S 
ATOM     13  C   UNL     1     -39.938  12.885   8.807  1.00  0.00    +0.345 A 
ATOM     14  N   UNL     1     -39.146  12.233  10.887  1.00  0.00    -0.221 NA
ATOM     15  C   UNL     1     -39.546  13.272  10.067  1.00  0.00    +0.212 A 
BRANCH  13  16
ATOM     16  N   UNL     1     -40.400  13.728   7.753  1.00  0.00    +0.076 N 
ATOM     17  O   UNL     1     -39.558  14.326   7.071  1.00  0.00    -0.257 OA
ATOM     18  O   UNL     1     -41.627  13.793   7.598  1.00  0.00    -0.257 OA
ENDBRANCH  13  16
ENDBRANCH   8  11
ENDBRANCH   1   7
BRANCH   2  19
ATOM     19  O   UNL     1     -38.475   7.336   9.468  1.00  0.00    -0.426 OA
BRANCH  19  20
ATOM     20  C   UNL     1     -39.024   6.459   8.539  1.00  0.00    +0.308 C 
ATOM     21  O   UNL     1     -38.408   5.668   7.832  1.00  0.00    -0.252 OA
ATOM     22  C   UNL     1     -40.513   6.633   8.523  1.00  0.00    +0.139 C 
ENDBRANCH  19  20
ENDBRANCH   2  19
TORSDOF 5
ENDMDL
MODEL 6
REMARK VINA RESULT:    -7.330      2.900      7.178
REMARK INTER + INTRA:         -10.319
REMARK INTER:                  -9.193
REMARK INTRA:                  -1.126
REMARK UNBOUND:                -0.847
REMARK SMILES CC(=O)Oc1ccccc1C(=O)Nc1ncc([N+](=O)[O-])s1
REMARK SMILES IDX 10 1 5 2 9 3 6 4 8 5 7 6 11 7 13 8 12 9 14 11 21 12 17 13
REMARK SMILES IDX 15 14 16 15 18 16 19 17 20 18 4 19 2 20 3 21 1 22
REMARK H PARENT 13 10
ROOT
ATOM      1  C   UNL     1     -39.944  12.286   8.859  1.00  0.00    +0.083 A 
ATOM      2  C   UNL     1     -40.764  12.865   9.835  1.00  0.00    +0.143 A 
ATOM      3  C   UNL     1     -39.467  13.068   7.799  1.00  0.00    +0.018 A 
ATOM      4  C   UNL     1     -41.089  14.220   9.774  1.00  0.00    +0.048 A 
ATOM      5  C   UNL     1     -39.809  14.421   7.728  1.00  0.00    +0.001 A 
ATOM      6  C   UNL     1     -40.615  14.994   8.714  1.00  0.00    +0.004 A 
ENDROOT
BRANCH   1   7
ATOM      7  C   UNL     1     -39.563  10.858   8.942  1.00  0.00    +0.261 C 
ATOM      8  N   UNL     1     -38.509  10.625   9.792  1.00  0.00    -0.298 N 
ATOM      9  O   UNL     1     -40.168  10.053   8.247  1.00  0.00    -0.269 OA
ATOM     10  H   UNL     1     -38.002  11.401  10.193  1.00  0.00    +0.172 HD
BRANCH   8  11
ATOM     11  C   UNL     1     -37.980   9.379   9.974  1.00  0.00    +0.195 A 
ATOM     12  S   UNL     1     -38.278   8.719  11.523  1.00  0.00    -0.024 S 
ATOM     13  C   UNL     1     -37.419   7.328  11.056  1.00  0.00    +0.345 A 
ATOM     14  N   UNL     1     -37.299   8.632   9.141  1.00  0.00    -0.221 NA
ATOM     15  C   UNL     1     -36.965   7.442   9.764  1.00  0.00    +0.212 A 
BRANCH  13  16
ATOM     16  N   UNL     1     -37.233   6.224  11.940  1.00  0.00    +0.076 N 
ATOM     17  O   UNL     1     -37.705   6.302  13.081  1.00  0.00    -0.257 OA
ATOM     18  O   UNL     1     -36.607   5.256  11.486  1.00  0.00    -0.257 OA
ENDBRANCH  13  16
ENDBRANCH   8  11
ENDBRANCH   1   7
BRANCH   2  19
ATOM     19  O   UNL     1     -41.258  12.142  10.926  1.00  0.00    -0.426 OA
BRANCH  19  20
ATOM     20  C   UNL     1     -40.589  12.396  12.119  1.00  0.00    +0.308 C 
ATOM     21  O   UNL     1     -39.375  12.370  12.291  1.00  0.00    -0.252 OA
ATOM     22  C   UNL     1     -41.593  12.702  13.188  1.00  0.00    +0.139 C 
ENDBRANCH  19  20
ENDBRANCH   2  19
TORSDOF 5
ENDMDL
MODEL 7
REMARK VINA RESULT:    -7.129      4.564      8.155
REMARK INTER + INTRA:         -10.060
REMARK INTER:                  -8.928
REMARK INTRA:                  -1.132
REMARK UNBOUND:                -0.847
REMARK SMILES CC(=O)Oc1ccccc1C(=O)Nc1ncc([N+](=O)[O-])s1
REMARK SMILES IDX 10 1 5 2 9 3 6 4 8 5 7 6 11 7 13 8 12 9 14 11 21 12 17 13
REMARK SMILES IDX 15 14 16 15 18 16 19 17 20 18 4 19 2 20 3 21 1 22
REMARK H PARENT 13 10
ROOT
ATOM      1  C   UNL     1     -40.863  14.214  12.392  1.00  0.00    +0.083 A 
ATOM      2  C   UNL     1     -40.803  14.135  10.996  1.00  0.00    +0.143 A 
ATOM      3  C   UNL     1     -40.935  15.466  13.015  1.00  0.00    +0.018 A 
ATOM      4  C   UNL     1     -40.840  15.293  10.219  1.00  0.00    +0.048 A 
ATOM      5  C   UNL     1     -40.953  16.627  12.237  1.00  0.00    +0.001 A 
ATOM      6  C   UNL     1     -40.908  16.539  10.844  1.00  0.00    +0.004 A 
ENDROOT
BRANCH   1   7
ATOM      7  C   UNL     1     -40.865  12.986  13.219  1.00  0.00    +0.261 C 
ATOM      8  N   UNL     1     -39.666  12.315  13.197  1.00  0.00    -0.298 N 
ATOM      9  O   UNL     1     -41.899  12.671  13.792  1.00  0.00    -0.269 OA
ATOM     10  H   UNL     1     -38.935  12.605  12.563  1.00  0.00    +0.172 HD
BRANCH   8  11
ATOM     11  C   UNL     1     -39.478  11.137  13.862  1.00  0.00    +0.195 A 
ATOM     12  S   UNL     1     -38.750  11.317  15.399  1.00  0.00    -0.024 S 
ATOM     13  C   UNL     1     -38.827   9.629  15.593  1.00  0.00    +0.345 A 
ATOM     14  N   UNL     1     -39.778   9.915  13.497  1.00  0.00    -0.221 NA
ATOM     15  C   UNL     1     -39.400   9.034  14.494  1.00  0.00    +0.212 A 
BRANCH  13  16
ATOM     16  N   UNL     1     -38.345   8.982  16.769  1.00  0.00    +0.076 N 
ATOM     17  O   UNL     1     -37.206   8.498  16.745  1.00  0.00    -0.257 OA
ATOM     18  O   UNL     1     -39.116   8.957  17.739  1.00  0.00    -0.257 OA
ENDBRANCH  13  16
ENDBRANCH   8  11
ENDBRANCH   1   7
BRANCH   2  19
ATOM     19  O   UNL     1     -40.747  12.915  10.314  1.00  0.00    -0.426 OA
BRANCH  19  20
ATOM     20  C   UNL     1     -39.504  12.637   9.757  1.00  0.00    +0.308 C 
ATOM     21  O   UNL     1     -38.444  12.527  10.363  1.00  0.00    -0.252 OA
ATOM     22  C   UNL     1     -39.653  12.500   8.272  1.00  0.00    +0.139 C 
ENDBRANCH  19  20
ENDBRANCH   2  19
TORSDOF 5
ENDMDL
MODEL 8
REMARK VINA RESULT:    -7.060      3.194      7.092
REMARK INTER + INTRA:          -9.970
REMARK INTER:                  -8.797
REMARK INTRA:                  -1.173
REMARK UNBOUND:                -0.847
REMARK SMILES CC(=O)Oc1ccccc1C(=O)Nc1ncc([N+](=O)[O-])s1
REMARK SMILES IDX 10 1 5 2 9 3 6 4 8 5 7 6 11 7 13 8 12 9 14 11 21 12 17 13
REMARK SMILES IDX 15 14 16 15 18 16 19 17 20 18 4 19 2 20 3 21 1 22
REMARK H PARENT 13 10
ROOT
ATOM      1  C   UNL     1     -40.868  13.265  10.978  1.00  0.00    +0.083 A 
ATOM      2  C   UNL     1     -40.734  13.236  12.371  1.00  0.00    +0.143 A 
ATOM      3  C   UNL     1     -40.985  14.493  10.316  1.00  0.00    +0.018 A 
ATOM      4  C   UNL     1     -40.689  14.423  13.103  1.00  0.00    +0.048 A 
ATOM      5  C   UNL     1     -40.960  15.682  11.052  1.00  0.00    +0.001 A 
ATOM      6  C   UNL     1     -40.810  15.645  12.440  1.00  0.00    +0.004 A 
ENDROOT
BRANCH   1   7
ATOM      7  C   UNL     1     -40.875  12.010  10.193  1.00  0.00    +0.261 C 
ATOM      8  N   UNL     1     -39.653  11.383  10.161  1.00  0.00    -0.298 N 
ATOM      9  O   UNL     1     -41.912  11.677   9.635  1.00  0.00    -0.269 OA
ATOM     10  H   UNL     1     -38.838  11.842  10.542  1.00  0.00    +0.172 HD
BRANCH   8  11
ATOM     11  C   UNL     1     -39.441  10.233   9.454  1.00  0.00    +0.195 A 
ATOM     12  S   UNL     1     -39.184   8.855  10.434  1.00  0.00    -0.024 S 
ATOM     13  C   UNL     1     -39.013   7.926   9.020  1.00  0.00    +0.345 A 
ATOM     14  N   UNL     1     -39.418  10.041   8.158  1.00  0.00    -0.221 NA
ATOM     15  C   UNL     1     -39.165   8.706   7.898  1.00  0.00    +0.212 A 
BRANCH  13  16
ATOM     16  N   UNL     1     -38.749   6.525   9.064  1.00  0.00    +0.076 N 
ATOM     17  O   UNL     1     -38.423   5.958   8.014  1.00  0.00    -0.257 OA
ATOM     18  O   UNL     1     -38.866   5.978  10.169  1.00  0.00    -0.257 OA
ENDBRANCH  13  16
ENDBRANCH   8  11
ENDBRANCH   1   7
BRANCH   2  19
ATOM     19  O   UNL     1     -40.596  12.042  13.088  1.00  0.00    -0.426 OA
BRANCH  19  20
ATOM     20  C   UNL     1     -39.303  11.805  13.543  1.00  0.00    +0.308 C 
ATOM     21  O   UNL     1     -38.291  11.737  12.854  1.00  0.00    -0.252 OA
ATOM     22  C   UNL     1     -39.332  11.631  15.031  1.00  0.00    +0.139 C 
ENDBRANCH  19  20
ENDBRANCH   2  19
TORSDOF 5
ENDMDL
MODEL 9
REMARK VINA RESULT:    -6.940      2.532      3.187
REMARK INTER + INTRA:          -9.815
REMARK INTER:                  -8.987
REMARK INTRA:                  -0.828
REMARK UNBOUND:                -0.847
REMARK SMILES CC(=O)Oc1ccccc1C(=O)Nc1ncc([N+](=O)[O-])s1
REMARK SMILES IDX 10 1 5 2 9 3 6 4 8 5 7 6 11 7 13 8 12 9 14 11 21 12 17 13
REMARK SMILES IDX 15 14 16 15 18 16 19 17 20 18 4 19 2 20 3 21 1 22
REMARK H PARENT 13 10
ROOT
ATOM      1  C   UNL     1     -39.668   9.939  11.994  1.00  0.00    +0.083 A 
ATOM      2  C   UNL     1     -38.760   9.170  11.257  1.00  0.00    +0.143 A 
ATOM      3  C   UNL     1     -40.408   9.345  13.023  1.00  0.00    +0.018 A 
ATOM      4  C   UNL     1     -38.567   7.820  11.558  1.00  0.00    +0.048 A 
ATOM      5  C   UNL     1     -40.230   7.989  13.312  1.00  0.00    +0.001 A 
ATOM      6  C   UNL     1     -39.310   7.232  12.582  1.00  0.00    +0.004 A 
ENDROOT
BRANCH   1   7
ATOM      7  C   UNL     1     -39.845  11.380  11.706  1.00  0.00    +0.261 C 
ATOM      8  N   UNL     1     -40.739  11.625  10.691  1.00  0.00    -0.298 N 
ATOM      9  O   UNL     1     -39.182  12.188  12.341  1.00  0.00    -0.269 OA
ATOM     10  H   UNL     1     -41.109  10.858  10.147  1.00  0.00    +0.172 HD
BRANCH   8  11
ATOM     11  C   UNL     1     -41.009  12.887  10.245  1.00  0.00    +0.195 A 
ATOM     12  S   UNL     1     -40.234  13.284   8.774  1.00  0.00    -0.024 S 
ATOM     13  C   UNL     1     -40.958  14.820   8.847  1.00  0.00    +0.345 A 
ATOM     14  N   UNL     1     -41.771  13.814  10.772  1.00  0.00    -0.221 NA
ATOM     15  C   UNL     1     -41.743  14.940   9.969  1.00  0.00    +0.212 A 
BRANCH  13  16
ATOM     16  N   UNL     1     -40.739  15.807   7.840  1.00  0.00    +0.076 N 
ATOM     17  O   UNL     1     -40.611  16.986   8.195  1.00  0.00    -0.257 OA
ATOM     18  O   UNL     1     -40.690  15.400   6.672  1.00  0.00    -0.257 OA
ENDBRANCH  13  16
ENDBRANCH   8  11
ENDBRANCH   1   7
BRANCH   2  19
ATOM     19  O   UNL     1     -37.979   9.708  10.229  1.00  0.00    -0.426 OA
BRANCH  19  20
ATOM     20  C   UNL     1     -38.002   8.963   9.055  1.00  0.00    +0.308 C 
ATOM     21  O   UNL     1     -37.098   8.254   8.626  1.00  0.00    -0.252 OA
ATOM     22  C   UNL     1     -39.320   9.168   8.372  1.00  0.00    +0.139 C 
ENDBRANCH  19  20
ENDBRANCH   2  19
TORSDOF 5
ENDMDL
