MODEL 1
REMARK VINA RESULT:    -8.985      0.000      0.000
REMARK INTER + INTRA:         -10.358
REMARK INTER:                 -10.036
REMARK INTRA:                  -0.322
REMARK UNBOUND:                -0.322
REMARK SMILES O=C(C1CCCCC1)N1CC(=O)N2CCc3ccccc3[C@@H]2C1
REMARK SMILES IDX 1 1 2 2 9 3 23 4 10 5 22 6 11 7 13 8 21 9 12 10 14 11 16 12
REMARK SMILES IDX 20 13 15 14 17 15 19 16 18 17 3 18 4 19 8 20 5 21 7 22 6 23
REMARK H PARENT
ROOT
ATOM      1  O   UNL     1     -27.398  11.223 -20.261  1.00  0.00    -0.275 OA
ATOM      2  C   UNL     1     -28.001  11.389 -21.323  1.00  0.00    +0.226 C 
ENDROOT
BRANCH   2   3
ATOM      3  N   UNL     1     -28.141  12.658 -21.875  1.00  0.00    -0.331 N 
ATOM      4  C   UNL     1     -27.498  13.111 -23.110  1.00  0.00    +0.150 C 
ATOM      5  C   UNL     1     -29.334  13.409 -21.478  1.00  0.00    +0.219 C 
ATOM      6  C   UNL     1     -27.272  14.637 -23.071  1.00  0.00    +0.135 C 
ATOM      7  C   UNL     1     -29.466  14.871 -21.942  1.00  0.00    +0.242 C 
ATOM      8  N   UNL     1     -28.561  15.320 -22.897  1.00  0.00    -0.332 N 
ATOM      9  C   UNL     1     -26.470  15.128 -24.272  1.00  0.00    -0.020 A 
ATOM     10  O   UNL     1     -30.397  15.568 -21.537  1.00  0.00    -0.273 OA
ATOM     11  C   UNL     1     -28.661  16.690 -23.379  1.00  0.00    +0.125 C 
ATOM     12  C   UNL     1     -26.964  16.137 -25.122  1.00  0.00    -0.041 A 
ATOM     13  C   UNL     1     -25.188  14.608 -24.524  1.00  0.00    +0.006 A 
ATOM     14  C   UNL     1     -28.310  16.762 -24.860  1.00  0.00    +0.057 C 
ATOM     15  C   UNL     1     -26.215  16.549 -26.234  1.00  0.00    +0.004 A 
ATOM     16  C   UNL     1     -24.442  15.037 -25.623  1.00  0.00    +0.000 A 
ATOM     17  C   UNL     1     -24.960  16.000 -26.483  1.00  0.00    +0.000 A 
ENDBRANCH   2   3
BRANCH   2  18
ATOM     18  C   UNL     1     -28.566  10.195 -22.097  1.00  0.00    +0.078 C 
ATOM     19  C   UNL     1     -27.428   9.417 -22.778  1.00  0.00    +0.013 C 
ATOM     20  C   UNL     1     -29.356   9.256 -21.168  1.00  0.00    +0.013 C 
ATOM     21  C   UNL     1     -27.953   8.197 -23.531  1.00  0.00    +0.001 C 
ATOM     22  C   UNL     1     -29.889   8.039 -21.920  1.00  0.00    +0.001 C 
ATOM     23  C   UNL     1     -28.769   7.281 -22.624  1.00  0.00    +0.000 C 
ENDBRANCH   2  18
TORSDOF 2
ENDMDL
MODEL 2
REMARK VINA RESULT:    -8.917      6.029      8.899
REMARK INTER + INTRA:         -10.282
REMARK INTER:                 -10.294
REMARK INTRA:                   0.013
REMARK UNBOUND:                -0.322
REMARK SMILES O=C(C1CCCCC1)N1CC(=O)N2CCc3ccccc3[C@@H]2C1
REMARK SMILES IDX 1 1 2 2 9 3 23 4 10 5 22 6 11 7 13 8 21 9 12 10 14 11 16 12
REMARK SMILES IDX 20 13 15 14 17 15 19 16 18 17 3 18 4 19 8 20 5 21 7 22 6 23
REMARK H PARENT
ROOT
ATOM      1  O   UNL     1     -22.994  11.440 -29.487  1.00  0.00    -0.275 OA
ATOM      2  C   UNL     1     -22.919  12.650 -29.705  1.00  0.00    +0.226 C 
ENDROOT
BRANCH   2   3
ATOM      3  N   UNL     1     -23.818  13.538 -29.124  1.00  0.00    -0.331 N 
ATOM      4  C   UNL     1     -25.217  13.234 -28.818  1.00  0.00    +0.150 C 
ATOM      5  C   UNL     1     -23.235  14.643 -28.359  1.00  0.00    +0.219 C 
ATOM      6  C   UNL     1     -26.070  14.520 -28.860  1.00  0.00    +0.135 C 
ATOM      7  C   UNL     1     -24.177  15.735 -27.819  1.00  0.00    +0.242 C 
ATOM      8  N   UNL     1     -25.544  15.490 -27.890  1.00  0.00    -0.332 N 
ATOM      9  C   UNL     1     -27.557  14.227 -28.695  1.00  0.00    -0.020 A 
ATOM     10  O   UNL     1     -23.715  16.735 -27.268  1.00  0.00    -0.273 OA
ATOM     11  C   UNL     1     -26.470  16.486 -27.372  1.00  0.00    +0.125 C 
ATOM     12  C   UNL     1     -28.319  14.840 -27.680  1.00  0.00    -0.041 A 
ATOM     13  C   UNL     1     -28.210  13.365 -29.594  1.00  0.00    +0.006 A 
ATOM     14  C   UNL     1     -27.674  15.812 -26.726  1.00  0.00    +0.057 C 
ATOM     15  C   UNL     1     -29.679  14.530 -27.537  1.00  0.00    +0.004 A 
ATOM     16  C   UNL     1     -29.569  13.076 -29.455  1.00  0.00    +0.000 A 
ATOM     17  C   UNL     1     -30.300  13.651 -28.420  1.00  0.00    +0.000 A 
ENDBRANCH   2   3
BRANCH   2  18
ATOM     18  C   UNL     1     -21.799  13.220 -30.580  1.00  0.00    +0.078 C 
ATOM     19  C   UNL     1     -20.558  13.521 -29.723  1.00  0.00    +0.013 C 
ATOM     20  C   UNL     1     -21.428  12.244 -31.710  1.00  0.00    +0.013 C 
ATOM     21  C   UNL     1     -19.407  14.059 -30.571  1.00  0.00    +0.001 C 
ATOM     22  C   UNL     1     -20.283  12.782 -32.564  1.00  0.00    +0.001 C 
ATOM     23  C   UNL     1     -19.059  13.113 -31.716  1.00  0.00    +0.000 C 
ENDBRANCH   2  18
TORSDOF 2
ENDMDL
MODEL 3
REMARK VINA RESULT:    -8.830      3.554      6.071
REMARK INTER + INTRA:         -10.184
REMARK INTER:                  -9.832
REMARK INTRA:                  -0.352
REMARK UNBOUND:                -0.322
REMARK SMILES O=C(C1CCCCC1)N1CC(=O)N2CCc3ccccc3[C@@H]2C1
REMARK SMILES IDX 1 1 2 2 9 3 23 4 10 5 22 6 11 7 13 8 21 9 12 10 14 11 16 12
REMARK SMILES IDX 20 13 15 14 17 15 19 16 18 17 3 18 4 19 8 20 5 21 7 22 6 23
REMARK H PARENT
ROOT
ATOM      1  O   UNL     1     -28.689  17.193 -24.973  1.00  0.00    -0.275 OA
ATOM      2  C   UNL     1     -28.202  16.080 -24.762  1.00  0.00    +0.226 C 
ENDROOT
BRANCH   2   3
ATOM      3  N   UNL     1     -27.108  15.630 -25.493  1.00  0.00    -0.331 N 
ATOM      4  C   UNL     1     -27.008  14.314 -26.127  1.00  0.00    +0.150 C 
ATOM      5  C   UNL     1     -26.232  16.662 -26.052  1.00  0.00    +0.219 C 
ATOM      6  C   UNL     1     -25.532  13.873 -26.222  1.00  0.00    +0.135 C 
ATOM      7  C   UNL     1     -24.929  16.220 -26.743  1.00  0.00    +0.242 C 
ATOM      8  N   UNL     1     -24.773  14.862 -26.999  1.00  0.00    -0.332 N 
ATOM      9  C   UNL     1     -25.393  12.444 -26.738  1.00  0.00    -0.020 A 
ATOM     10  O   UNL     1     -24.114  17.060 -27.126  1.00  0.00    -0.273 OA
ATOM     11  C   UNL     1     -23.566  14.402 -27.669  1.00  0.00    +0.125 C 
ATOM     12  C   UNL     1     -24.610  12.145 -27.871  1.00  0.00    -0.041 A 
ATOM     13  C   UNL     1     -26.013  11.384 -26.054  1.00  0.00    +0.006 A 
ATOM     14  C   UNL     1     -23.883  13.242 -28.606  1.00  0.00    +0.057 C 
ATOM     15  C   UNL     1     -24.523  10.825 -28.337  1.00  0.00    +0.004 A 
ATOM     16  C   UNL     1     -25.906  10.071 -26.514  1.00  0.00    +0.000 A 
ATOM     17  C   UNL     1     -25.170   9.793 -27.662  1.00  0.00    +0.000 A 
ENDBRANCH   2   3
BRANCH   2  18
ATOM     18  C   UNL     1     -28.753  15.182 -23.651  1.00  0.00    +0.078 C 
ATOM     19  C   UNL     1     -28.941  15.992 -22.358  1.00  0.00    +0.013 C 
ATOM     20  C   UNL     1     -30.090  14.544 -24.067  1.00  0.00    +0.013 C 
ATOM     21  C   UNL     1     -29.523  15.134 -21.237  1.00  0.00    +0.001 C 
ATOM     22  C   UNL     1     -30.671  13.679 -22.951  1.00  0.00    +0.001 C 
ATOM     23  C   UNL     1     -30.830  14.468 -21.656  1.00  0.00    +0.000 C 
ENDBRANCH   2  18
TORSDOF 2
ENDMDL
MODEL 4
REMARK VINA RESULT:    -8.727      4.240      6.887
REMARK INTER + INTRA:         -10.069
REMARK INTER:                  -9.899
REMARK INTRA:                  -0.170
REMARK UNBOUND:                -0.322
REMARK SMILES O=C(C1CCCCC1)N1CC(=O)N2CCc3ccccc3[C@@H]2C1
REMARK SMILES IDX 1 1 2 2 9 3 23 4 10 5 22 6 11 7 13 8 21 9 12 10 14 11 16 12
REMARK SMILES IDX 20 13 15 14 17 15 19 16 18 17 3 18 4 19 8 20 5 21 7 22 6 23
REMARK H PARENT
ROOT
ATOM      1  O   UNL     1     -23.657  16.717 -27.605  1.00  0.00    -0.275 OA
ATOM      2  C   UNL     1     -24.174  15.601 -27.530  1.00  0.00    +0.226 C 
ENDROOT
BRANCH   2   3
ATOM      3  N   UNL     1     -25.462  15.442 -27.028  1.00  0.00    -0.331 N 
ATOM      4  C   UNL     1     -25.829  15.550 -25.615  1.00  0.00    +0.150 C 
ATOM      5  C   UNL     1     -26.557  15.647 -27.978  1.00  0.00    +0.219 C 
ATOM      6  C   UNL     1     -27.067  14.679 -25.313  1.00  0.00    +0.135 C 
ATOM      7  C   UNL     1     -27.993  15.342 -27.515  1.00  0.00    +0.242 C 
ATOM      8  N   UNL     1     -28.190  15.111 -26.158  1.00  0.00    -0.332 N 
ATOM      9  C   UNL     1     -27.394  14.644 -23.824  1.00  0.00    -0.020 A 
ATOM     10  O   UNL     1     -28.928  15.395 -28.316  1.00  0.00    -0.273 OA
ATOM     11  C   UNL     1     -29.535  14.839 -25.672  1.00  0.00    +0.125 C 
ATOM     12  C   UNL     1     -28.664  15.016 -23.341  1.00  0.00    -0.041 A 
ATOM     13  C   UNL     1     -26.434  14.189 -22.902  1.00  0.00    +0.006 A 
ATOM     14  C   UNL     1     -29.742  15.460 -24.296  1.00  0.00    +0.057 C 
ATOM     15  C   UNL     1     -28.926  14.999 -21.963  1.00  0.00    +0.004 A 
ATOM     16  C   UNL     1     -26.709  14.158 -21.534  1.00  0.00    +0.000 A 
ATOM     17  C   UNL     1     -27.951  14.573 -21.064  1.00  0.00    +0.000 A 
ENDBRANCH   2   3
BRANCH   2  18
ATOM     18  C   UNL     1     -23.435  14.360 -28.039  1.00  0.00    +0.078 C 
ATOM     19  C   UNL     1     -24.405  13.173 -28.148  1.00  0.00    +0.013 C 
ATOM     20  C   UNL     1     -22.781  14.627 -29.406  1.00  0.00    +0.013 C 
ATOM     21  C   UNL     1     -23.708  11.925 -28.687  1.00  0.00    +0.001 C 
ATOM     22  C   UNL     1     -22.076  13.384 -29.944  1.00  0.00    +0.001 C 
ATOM     23  C   UNL     1     -23.026  12.193 -30.024  1.00  0.00    +0.000 C 
ENDBRANCH   2  18
TORSDOF 2
ENDMDL
MODEL 5
REMARK VINA RESULT:    -8.655      5.161      8.281
REMARK INTER + INTRA:          -9.989
REMARK INTER:                  -9.739
REMARK INTRA:                  -0.250
REMARK UNBOUND:                -0.322
REMARK SMILES O=C(C1CCCCC1)N1CC(=O)N2CCc3ccccc3[C@@H]2C1
REMARK SMILES IDX 1 1 2 2 9 3 23 4 10 5 22 6 11 7 13 8 21 9 12 10 14 11 16 12
REMARK SMILES IDX 20 13 15 14 17 15 19 16 18 17 3 18 4 19 8 20 5 21 7 22 6 23
REMARK H PARENT
ROOT
ATOM      1  O   UNL     1     -23.289  11.167 -29.107  1.00  0.00    -0.275 OA
ATOM      2  C   UNL     1     -23.269  12.370 -29.373  1.00  0.00    +0.226 C 
ENDROOT
BRANCH   2   3
ATOM      3  N   UNL     1     -24.065  13.271 -28.672  1.00  0.00    -0.331 N 
ATOM      4  C   UNL     1     -24.115  13.384 -27.213  1.00  0.00    +0.150 C 
ATOM      5  C   UNL     1     -24.502  14.458 -29.409  1.00  0.00    +0.219 C 
ATOM      6  C   UNL     1     -25.496  13.905 -26.762  1.00  0.00    +0.135 C 
ATOM      7  C   UNL     1     -25.502  15.412 -28.729  1.00  0.00    +0.242 C 
ATOM      8  N   UNL     1     -25.752  15.215 -27.376  1.00  0.00    -0.332 N 
ATOM      9  C   UNL     1     -25.644  13.896 -25.244  1.00  0.00    -0.020 A 
ATOM     10  O   UNL     1     -25.979  16.360 -29.356  1.00  0.00    -0.273 OA
ATOM     11  C   UNL     1     -26.674  16.107 -26.688  1.00  0.00    +0.125 C 
ATOM     12  C   UNL     1     -25.981  15.063 -24.531  1.00  0.00    -0.041 A 
ATOM     13  C   UNL     1     -25.491  12.694 -24.528  1.00  0.00    +0.006 A 
ATOM     14  C   UNL     1     -26.206  16.362 -25.261  1.00  0.00    +0.057 C 
ATOM     15  C   UNL     1     -26.083  15.029 -23.133  1.00  0.00    +0.004 A 
ATOM     16  C   UNL     1     -25.613  12.666 -23.138  1.00  0.00    +0.000 A 
ATOM     17  C   UNL     1     -25.898  13.835 -22.440  1.00  0.00    +0.000 A 
ENDBRANCH   2   3
BRANCH   2  18
ATOM     18  C   UNL     1     -22.326  12.919 -30.448  1.00  0.00    +0.078 C 
ATOM     19  C   UNL     1     -21.155  13.670 -29.794  1.00  0.00    +0.013 C 
ATOM     20  C   UNL     1     -21.786  11.787 -31.340  1.00  0.00    +0.013 C 
ATOM     21  C   UNL     1     -20.175  14.201 -30.837  1.00  0.00    +0.001 C 
ATOM     22  C   UNL     1     -20.812  12.316 -32.390  1.00  0.00    +0.001 C 
ATOM     23  C   UNL     1     -19.665  13.090 -31.749  1.00  0.00    +0.000 C 
ENDBRANCH   2  18
TORSDOF 2
ENDMDL
MODEL 6
REMARK VINA RESULT:    -8.561      2.663      4.613
REMARK INTER + INTRA:          -9.884
REMARK INTER:                  -9.528
REMARK INTRA:                  -0.356
REMARK UNBOUND:                -0.322
REMARK SMILES O=C(C1CCCCC1)N1CC(=O)N2CCc3ccccc3[C@@H]2C1
REMARK SMILES IDX 1 1 2 2 9 3 23 4 10 5 22 6 11 7 13 8 21 9 12 10 14 11 16 12
REMARK SMILES IDX 20 13 15 14 17 15 19 16 18 17 3 18 4 19 8 20 5 21 7 22 6 23
REMARK H PARENT
ROOT
ATOM      1  O   UNL     1     -30.833  13.619 -19.074  1.00  0.00    -0.275 OA
ATOM      2  C   UNL     1     -30.932  13.071 -20.173  1.00  0.00    +0.226 C 
ENDROOT
BRANCH   2   3
ATOM      3  N   UNL     1     -29.815  12.878 -20.978  1.00  0.00    -0.331 N 
ATOM      4  C   UNL     1     -29.096  13.941 -21.683  1.00  0.00    +0.150 C 
ATOM      5  C   UNL     1     -29.046  11.655 -20.737  1.00  0.00    +0.219 C 
ATOM      6  C   UNL     1     -28.424  13.383 -22.956  1.00  0.00    +0.135 C 
ATOM      7  C   UNL     1     -27.888  11.319 -21.694  1.00  0.00    +0.242 C 
ATOM      8  N   UNL     1     -27.494  12.307 -22.589  1.00  0.00    -0.332 N 
ATOM      9  C   UNL     1     -27.790  14.485 -23.799  1.00  0.00    -0.020 A 
ATOM     10  O   UNL     1     -27.291  10.246 -21.592  1.00  0.00    -0.273 OA
ATOM     11  C   UNL     1     -26.389  12.039 -23.499  1.00  0.00    +0.125 C 
ATOM     12  C   UNL     1     -26.429  14.445 -24.158  1.00  0.00    -0.041 A 
ATOM     13  C   UNL     1     -28.578  15.549 -24.277  1.00  0.00    +0.006 A 
ATOM     14  C   UNL     1     -25.558  13.298 -23.714  1.00  0.00    +0.057 C 
ATOM     15  C   UNL     1     -25.869  15.487 -24.912  1.00  0.00    +0.004 A 
ATOM     16  C   UNL     1     -28.016  16.572 -25.041  1.00  0.00    +0.000 A 
ATOM     17  C   UNL     1     -26.660  16.546 -25.350  1.00  0.00    +0.000 A 
ENDBRANCH   2   3
BRANCH   2  18
ATOM     18  C   UNL     1     -32.281  12.536 -20.663  1.00  0.00    +0.078 C 
ATOM     19  C   UNL     1     -33.414  13.040 -19.754  1.00  0.00    +0.013 C 
ATOM     20  C   UNL     1     -32.551  12.963 -22.117  1.00  0.00    +0.013 C 
ATOM     21  C   UNL     1     -34.779  12.554 -20.234  1.00  0.00    +0.001 C 
ATOM     22  C   UNL     1     -33.912  12.471 -22.603  1.00  0.00    +0.001 C 
ATOM     23  C   UNL     1     -35.037  12.941 -21.687  1.00  0.00    +0.000 C 
ENDBRANCH   2  18
TORSDOF 2
ENDMDL
MODEL 7
REMARK VINA RESULT:    -8.555      3.721      4.967
REMARK INTER + INTRA:          -9.877
REMARK INTER:                  -9.501
REMARK INTRA:                  -0.376
REMARK UNBOUND:                -0.322
REMARK SMILES O=C(C1CCCCC1)N1CC(=O)N2CCc3ccccc3[C@@H]2C1
REMARK SMILES IDX 1 1 2 2 9 3 23 4 10 5 22 6 11 7 13 8 21 9 12 10 14 11 16 12
REMARK SMILES IDX 20 13 15 14 17 15 19 16 18 17 3 18 4 19 8 20 5 21 7 22 6 23
REMARK H PARENT
ROOT
ATOM      1  O   UNL     1     -32.102  11.663 -23.823  1.00  0.00    -0.275 OA
ATOM      2  C   UNL     1     -31.175  12.474 -23.799  1.00  0.00    +0.226 C 
ENDROOT
BRANCH   2   3
ATOM      3  N   UNL     1     -30.586  12.922 -24.977  1.00  0.00    -0.331 N 
ATOM      4  C   UNL     1     -29.240  12.564 -25.430  1.00  0.00    +0.150 C 
ATOM      5  C   UNL     1     -31.501  13.374 -26.028  1.00  0.00    +0.219 C 
ATOM      6  C   UNL     1     -28.651  13.689 -26.307  1.00  0.00    +0.135 C 
ATOM      7  C   UNL     1     -30.902  14.014 -27.293  1.00  0.00    +0.242 C 
ATOM      8  N   UNL     1     -29.525  13.918 -27.466  1.00  0.00    -0.332 N 
ATOM      9  C   UNL     1     -27.195  13.425 -26.676  1.00  0.00    -0.020 A 
ATOM     10  O   UNL     1     -31.639  14.508 -28.148  1.00  0.00    -0.273 OA
ATOM     11  C   UNL     1     -28.918  14.491 -28.658  1.00  0.00    +0.125 C 
ATOM     12  C   UNL     1     -26.770  13.395 -28.019  1.00  0.00    -0.041 A 
ATOM     13  C   UNL     1     -26.232  13.252 -25.665  1.00  0.00    +0.006 A 
ATOM     14  C   UNL     1     -27.757  13.628 -29.134  1.00  0.00    +0.057 C 
ATOM     15  C   UNL     1     -25.429  13.123 -28.327  1.00  0.00    +0.004 A 
ATOM     16  C   UNL     1     -24.896  13.000 -25.981  1.00  0.00    +0.000 A 
ATOM     17  C   UNL     1     -24.497  12.925 -27.312  1.00  0.00    +0.000 A 
ENDBRANCH   2   3
BRANCH   2  18
ATOM     18  C   UNL     1     -30.679  13.058 -22.473  1.00  0.00    +0.078 C 
ATOM     19  C   UNL     1     -30.351  14.550 -22.640  1.00  0.00    +0.013 C 
ATOM     20  C   UNL     1     -31.728  12.875 -21.362  1.00  0.00    +0.013 C 
ATOM     21  C   UNL     1     -29.886  15.173 -21.325  1.00  0.00    +0.001 C 
ATOM     22  C   UNL     1     -31.262  13.490 -20.044  1.00  0.00    +0.001 C 
ATOM     23  C   UNL     1     -30.904  14.964 -20.209  1.00  0.00    +0.000 C 
ENDBRANCH   2  18
TORSDOF 2
ENDMDL
MODEL 8
REMARK VINA RESULT:    -8.539      2.517      4.787
REMARK INTER + INTRA:          -9.860
REMARK INTER:                  -9.475
REMARK INTRA:                  -0.384
REMARK UNBOUND:                -0.322
REMARK SMILES O=C(C1CCCCC1)N1CC(=O)N2CCc3ccccc3[C@@H]2C1
REMARK SMILES IDX 1 1 2 2 9 3 23 4 10 5 22 6 11 7 13 8 21 9 12 10 14 11 16 12
REMARK SMILES IDX 20 13 15 14 17 15 19 16 18 17 3 18 4 19 8 20 5 21 7 22 6 23
REMARK H PARENT
ROOT
ATOM      1  O   UNL     1     -27.408  11.400 -20.987  1.00  0.00    -0.275 OA
ATOM      2  C   UNL     1     -27.477  12.346 -21.774  1.00  0.00    +0.226 C 
ENDROOT
BRANCH   2   3
ATOM      3  N   UNL     1     -26.969  12.240 -23.065  1.00  0.00    -0.331 N 
ATOM      4  C   UNL     1     -26.208  13.284 -23.754  1.00  0.00    +0.150 C 
ATOM      5  C   UNL     1     -26.771  10.881 -23.573  1.00  0.00    +0.219 C 
ATOM      6  C   UNL     1     -26.403  13.172 -25.281  1.00  0.00    +0.135 C 
ATOM      7  C   UNL     1     -26.350  10.705 -25.044  1.00  0.00    +0.242 C 
ATOM      8  N   UNL     1     -25.961  11.846 -25.736  1.00  0.00    -0.332 N 
ATOM      9  C   UNL     1     -25.750  14.330 -26.028  1.00  0.00    -0.020 A 
ATOM     10  O   UNL     1     -26.283   9.579 -25.540  1.00  0.00    -0.273 OA
ATOM     11  C   UNL     1     -25.537  11.724 -27.123  1.00  0.00    +0.125 C 
ATOM     12  C   UNL     1     -24.802  14.107 -27.046  1.00  0.00    -0.041 A 
ATOM     13  C   UNL     1     -26.125  15.655 -25.741  1.00  0.00    +0.006 A 
ATOM     14  C   UNL     1     -24.408  12.702 -27.425  1.00  0.00    +0.057 C 
ATOM     15  C   UNL     1     -24.199  15.193 -27.697  1.00  0.00    +0.004 A 
ATOM     16  C   UNL     1     -25.534  16.729 -26.407  1.00  0.00    +0.000 A 
ATOM     17  C   UNL     1     -24.563  16.499 -27.377  1.00  0.00    +0.000 A 
ENDBRANCH   2   3
BRANCH   2  18
ATOM     18  C   UNL     1     -28.173  13.649 -21.373  1.00  0.00    +0.078 C 
ATOM     19  C   UNL     1     -29.567  13.726 -22.017  1.00  0.00    +0.013 C 
ATOM     20  C   UNL     1     -28.299  13.762 -19.843  1.00  0.00    +0.013 C 
ATOM     21  C   UNL     1     -30.305  14.999 -21.610  1.00  0.00    +0.001 C 
ATOM     22  C   UNL     1     -29.029  15.038 -19.432  1.00  0.00    +0.001 C 
ATOM     23  C   UNL     1     -30.400  15.136 -20.093  1.00  0.00    +0.000 C 
ENDBRANCH   2  18
TORSDOF 2
ENDMDL
MODEL 9
REMARK VINA RESULT:    -8.441      2.438      4.319
REMARK INTER + INTRA:          -9.750
REMARK INTER:                  -9.406
REMARK INTRA:                  -0.344
REMARK UNBOUND:                -0.322
REMARK SMILES O=C(C1CCCCC1)N1CC(=O)N2CCc3ccccc3[C@@H]2C1
REMARK SMILES IDX 1 1 2 2 9 3 23 4 10 5 22 6 11 7 13 8 21 9 12 10 14 11 16 12
REMARK SMILES IDX 20 13 15 14 17 15 19 16 18 17 3 18 4 19 8 20 5 21 7 22 6 23
REMARK H PARENT
ROOT
ATOM      1  O   UNL     1     -28.903  15.503 -20.940  1.00  0.00    -0.275 OA
ATOM      2  C   UNL     1     -29.061  14.429 -21.524  1.00  0.00    +0.226 C 
ENDROOT
BRANCH   2   3
ATOM      3  N   UNL     1     -28.148  13.993 -22.477  1.00  0.00    -0.331 N 
ATOM      4  C   UNL     1     -27.280  14.868 -23.269  1.00  0.00    +0.150 C 
ATOM      5  C   UNL     1     -27.693  12.606 -22.352  1.00  0.00    +0.219 C 
ATOM      6  C   UNL     1     -26.948  14.212 -24.626  1.00  0.00    +0.135 C 
ATOM      7  C   UNL     1     -26.797  12.028 -23.463  1.00  0.00    +0.242 C 
ATOM      8  N   UNL     1     -26.285  12.920 -24.398  1.00  0.00    -0.332 N 
ATOM      9  C   UNL     1     -26.171  15.151 -25.542  1.00  0.00    -0.020 A 
ATOM     10  O   UNL     1     -26.486  10.836 -23.451  1.00  0.00    -0.273 OA
ATOM     11  C   UNL     1     -25.416  12.420 -25.453  1.00  0.00    +0.125 C 
ATOM     12  C   UNL     1     -24.925  14.783 -26.087  1.00  0.00    -0.041 A 
ATOM     13  C   UNL     1     -26.717  16.398 -25.899  1.00  0.00    +0.006 A 
ATOM     14  C   UNL     1     -24.326  13.436 -25.775  1.00  0.00    +0.057 C 
ATOM     15  C   UNL     1     -24.222  15.680 -26.905  1.00  0.00    +0.004 A 
ATOM     16  C   UNL     1     -26.018  17.276 -26.729  1.00  0.00    +0.000 A 
ATOM     17  C   UNL     1     -24.766  16.922 -27.222  1.00  0.00    +0.000 A 
ENDBRANCH   2   3
BRANCH   2  18
ATOM     18  C   UNL     1     -30.240  13.515 -21.177  1.00  0.00    +0.078 C 
ATOM     19  C   UNL     1     -30.857  13.933 -19.832  1.00  0.00    +0.013 C 
ATOM     20  C   UNL     1     -31.314  13.555 -22.278  1.00  0.00    +0.013 C 
ATOM     21  C   UNL     1     -32.059  13.063 -19.471  1.00  0.00    +0.001 C 
ATOM     22  C   UNL     1     -32.514  12.680 -21.924  1.00  0.00    +0.001 C 
ATOM     23  C   UNL     1     -33.112  13.068 -20.575  1.00  0.00    +0.000 C 
ENDBRANCH   2  18
TORSDOF 2
ENDMDL
