MODEL 1
REMARK VINA RESULT:    -7.465      0.000      0.000
REMARK INTER + INTRA:          -8.674
REMARK INTER:                  -8.337
REMARK INTRA:                  -0.337
REMARK UNBOUND:                -0.337
REMARK SMILES O=C(C1CCCCC1)N1CC(=O)N2CCc3ccccc3[C@@H]2C1
REMARK SMILES IDX 1 1 2 2 9 3 23 4 10 5 22 6 11 7 13 8 21 9 12 10 14 11 16 12
REMARK SMILES IDX 20 13 15 14 17 15 19 16 18 17 3 18 4 19 8 20 5 21 7 22 6 23
REMARK H PARENT
ROOT
ATOM      1  O   UNL     1       0.434  14.656  -3.969  1.00  0.00    -0.275 OA
ATOM      2  C   UNL     1       0.373  14.089  -2.876  1.00  0.00    +0.226 C 
ENDROOT
BRANCH   2   3
ATOM      3  N   UNL     1       1.440  14.140  -1.985  1.00  0.00    -0.331 N 
ATOM      4  C   UNL     1       2.744  13.512  -2.202  1.00  0.00    +0.150 C 
ATOM      5  C   UNL     1       1.428  15.245  -1.023  1.00  0.00    +0.219 C 
ATOM      6  C   UNL     1       3.399  13.150  -0.852  1.00  0.00    +0.135 C 
ATOM      7  C   UNL     1       2.504  15.266   0.078  1.00  0.00    +0.242 C 
ATOM      8  N   UNL     1       3.556  14.365  -0.041  1.00  0.00    -0.332 N 
ATOM      9  C   UNL     1       4.690  12.359  -1.035  1.00  0.00    -0.020 A 
ATOM     10  O   UNL     1       2.461  16.115   0.970  1.00  0.00    -0.273 OA
ATOM     11  C   UNL     1       4.606  14.365   0.967  1.00  0.00    +0.125 C 
ATOM     12  C   UNL     1       5.906  12.797  -0.474  1.00  0.00    -0.041 A 
ATOM     13  C   UNL     1       4.676  11.139  -1.735  1.00  0.00    +0.006 A 
ATOM     14  C   UNL     1       5.959  14.071   0.330  1.00  0.00    +0.057 C 
ATOM     15  C   UNL     1       7.082  12.061  -0.682  1.00  0.00    +0.004 A 
ATOM     16  C   UNL     1       5.848  10.405  -1.922  1.00  0.00    +0.000 A 
ATOM     17  C   UNL     1       7.052  10.871  -1.404  1.00  0.00    +0.000 A 
ENDBRANCH   2   3
BRANCH   2  18
ATOM     18  C   UNL     1      -0.900  13.357  -2.444  1.00  0.00    +0.078 C 
ATOM     19  C   UNL     1      -1.527  12.628  -3.644  1.00  0.00    +0.013 C 
ATOM     20  C   UNL     1      -0.605  12.350  -1.318  1.00  0.00    +0.013 C 
ATOM     21  C   UNL     1      -2.782  11.858  -3.240  1.00  0.00    +0.001 C 
ATOM     22  C   UNL     1      -1.860  11.584  -0.906  1.00  0.00    +0.001 C 
ATOM     23  C   UNL     1      -2.505  10.885  -2.099  1.00  0.00    +0.000 C 
ENDBRANCH   2  18
TORSDOF 2
ENDMDL
MODEL 2
REMARK VINA RESULT:    -7.045      2.060      6.244
REMARK INTER + INTRA:          -8.205
REMARK INTER:                  -7.892
REMARK INTRA:                  -0.313
REMARK UNBOUND:                -0.337
REMARK SMILES O=C(C1CCCCC1)N1CC(=O)N2CCc3ccccc3[C@@H]2C1
REMARK SMILES IDX 1 1 2 2 9 3 23 4 10 5 22 6 11 7 13 8 21 9 12 10 14 11 16 12
REMARK SMILES IDX 20 13 15 14 17 15 19 16 18 17 3 18 4 19 8 20 5 21 7 22 6 23
REMARK H PARENT
ROOT
ATOM      1  O   UNL     1       5.257  14.641   0.063  1.00  0.00    -0.275 OA
ATOM      2  C   UNL     1       4.253  13.934  -0.040  1.00  0.00    +0.226 C 
ENDROOT
BRANCH   2   3
ATOM      3  N   UNL     1       2.984  14.457   0.187  1.00  0.00    -0.331 N 
ATOM      4  C   UNL     1       1.775  13.660   0.399  1.00  0.00    +0.150 C 
ATOM      5  C   UNL     1       2.931  15.826   0.705  1.00  0.00    +0.219 C 
ATOM      6  C   UNL     1       0.528  14.439  -0.069  1.00  0.00    +0.135 C 
ATOM      7  C   UNL     1       1.555  16.505   0.837  1.00  0.00    +0.242 C 
ATOM      8  N   UNL     1       0.431  15.703   0.674  1.00  0.00    -0.332 N 
ATOM      9  C   UNL     1      -0.737  13.589  -0.006  1.00  0.00    -0.020 A 
ATOM     10  O   UNL     1       1.477  17.691   1.162  1.00  0.00    -0.273 OA
ATOM     11  C   UNL     1      -0.890  16.299   0.810  1.00  0.00    +0.125 C 
ATOM     12  C   UNL     1      -1.868  14.006   0.724  1.00  0.00    -0.041 A 
ATOM     13  C   UNL     1      -0.811  12.381  -0.723  1.00  0.00    +0.006 A 
ATOM     14  C   UNL     1      -1.854  15.318   1.465  1.00  0.00    +0.057 C 
ATOM     15  C   UNL     1      -3.007  13.189   0.785  1.00  0.00    +0.004 A 
ATOM     16  C   UNL     1      -1.955  11.583  -0.671  1.00  0.00    +0.000 A 
ATOM     17  C   UNL     1      -3.048  11.982   0.091  1.00  0.00    +0.000 A 
ENDBRANCH   2   3
BRANCH   2  18
ATOM     18  C   UNL     1       4.367  12.471  -0.476  1.00  0.00    +0.078 C 
ATOM     19  C   UNL     1       3.990  12.328  -1.960  1.00  0.00    +0.013 C 
ATOM     20  C   UNL     1       5.791  11.934  -0.246  1.00  0.00    +0.013 C 
ATOM     21  C   UNL     1       4.127  10.884  -2.438  1.00  0.00    +0.001 C 
ATOM     22  C   UNL     1       5.928  10.487  -0.715  1.00  0.00    +0.001 C 
ATOM     23  C   UNL     1       5.525  10.333  -2.178  1.00  0.00    +0.000 C 
ENDBRANCH   2  18
TORSDOF 2
ENDMDL
MODEL 3
REMARK VINA RESULT:    -7.040      1.997      3.563
REMARK INTER + INTRA:          -8.200
REMARK INTER:                  -7.875
REMARK INTRA:                  -0.325
REMARK UNBOUND:                -0.337
REMARK SMILES O=C(C1CCCCC1)N1CC(=O)N2CCc3ccccc3[C@@H]2C1
REMARK SMILES IDX 1 1 2 2 9 3 23 4 10 5 22 6 11 7 13 8 21 9 12 10 14 11 16 12
REMARK SMILES IDX 20 13 15 14 17 15 19 16 18 17 3 18 4 19 8 20 5 21 7 22 6 23
REMARK H PARENT
ROOT
ATOM      1  O   UNL     1      -0.528  13.923  -2.753  1.00  0.00    -0.275 OA
ATOM      2  C   UNL     1      -0.087  13.292  -1.790  1.00  0.00    +0.226 C 
ENDROOT
BRANCH   2   3
ATOM      3  N   UNL     1       1.279  13.067  -1.649  1.00  0.00    -0.331 N 
ATOM      4  C   UNL     1       2.145  13.749  -0.686  1.00  0.00    +0.150 C 
ATOM      5  C   UNL     1       1.776  11.779  -2.138  1.00  0.00    +0.219 C 
ATOM      6  C   UNL     1       3.592  13.819  -1.220  1.00  0.00    +0.135 C 
ATOM      7  C   UNL     1       3.297  11.537  -2.140  1.00  0.00    +0.242 C 
ATOM      8  N   UNL     1       4.090  12.459  -1.468  1.00  0.00    -0.332 N 
ATOM      9  C   UNL     1       4.496  14.653  -0.318  1.00  0.00    -0.020 A 
ATOM     10  O   UNL     1       3.761  10.514  -2.646  1.00  0.00    -0.273 OA
ATOM     11  C   UNL     1       5.532  12.259  -1.427  1.00  0.00    +0.125 C 
ATOM     12  C   UNL     1       5.685  14.124   0.222  1.00  0.00    -0.041 A 
ATOM     13  C   UNL     1       4.176  15.996  -0.046  1.00  0.00    +0.006 A 
ATOM     14  C   UNL     1       6.096  12.707  -0.085  1.00  0.00    +0.057 C 
ATOM     15  C   UNL     1       6.482  14.907   1.070  1.00  0.00    +0.004 A 
ATOM     16  C   UNL     1       4.984  16.773   0.784  1.00  0.00    +0.000 A 
ATOM     17  C   UNL     1       6.131  16.225   1.351  1.00  0.00    +0.000 A 
ENDBRANCH   2   3
BRANCH   2  18
ATOM     18  C   UNL     1      -1.024  12.785  -0.690  1.00  0.00    +0.078 C 
ATOM     19  C   UNL     1      -1.847  13.950  -0.116  1.00  0.00    +0.013 C 
ATOM     20  C   UNL     1      -1.967  11.694  -1.226  1.00  0.00    +0.013 C 
ATOM     21  C   UNL     1      -2.819  13.474   0.961  1.00  0.00    +0.001 C 
ATOM     22  C   UNL     1      -2.934  11.209  -0.148  1.00  0.00    +0.001 C 
ATOM     23  C   UNL     1      -3.732  12.365   0.448  1.00  0.00    +0.000 C 
ENDBRANCH   2  18
TORSDOF 2
ENDMDL
MODEL 4
REMARK VINA RESULT:    -6.851      1.437      7.016
REMARK INTER + INTRA:          -7.988
REMARK INTER:                  -7.652
REMARK INTRA:                  -0.337
REMARK UNBOUND:                -0.337
REMARK SMILES O=C(C1CCCCC1)N1CC(=O)N2CCc3ccccc3[C@@H]2C1
REMARK SMILES IDX 1 1 2 2 9 3 23 4 10 5 22 6 11 7 13 8 21 9 12 10 14 11 16 12
REMARK SMILES IDX 20 13 15 14 17 15 19 16 18 17 3 18 4 19 8 20 5 21 7 22 6 23
REMARK H PARENT
ROOT
ATOM      1  O   UNL     1       3.656  13.739   0.578  1.00  0.00    -0.275 OA
ATOM      2  C   UNL     1       3.645  13.409  -0.609  1.00  0.00    +0.226 C 
ENDROOT
BRANCH   2   3
ATOM      3  N   UNL     1       2.527  13.636  -1.404  1.00  0.00    -0.331 N 
ATOM      4  C   UNL     1       1.141  13.572  -0.937  1.00  0.00    +0.150 C 
ATOM      5  C   UNL     1       2.744  14.427  -2.617  1.00  0.00    +0.219 C 
ATOM      6  C   UNL     1       0.200  13.179  -2.095  1.00  0.00    +0.135 C 
ATOM      7  C   UNL     1       1.574  14.585  -3.605  1.00  0.00    +0.242 C 
ATOM      8  N   UNL     1       0.319  14.163  -3.180  1.00  0.00    -0.332 N 
ATOM      9  C   UNL     1      -1.232  12.954  -1.621  1.00  0.00    -0.020 A 
ATOM     10  O   UNL     1       1.748  15.147  -4.688  1.00  0.00    -0.273 OA
ATOM     11  C   UNL     1      -0.820  14.312  -4.075  1.00  0.00    +0.125 C 
ATOM     12  C   UNL     1      -2.313  13.659  -2.186  1.00  0.00    -0.041 A 
ATOM     13  C   UNL     1      -1.504  11.993  -0.630  1.00  0.00    +0.006 A 
ATOM     14  C   UNL     1      -2.076  14.661  -3.287  1.00  0.00    +0.057 C 
ATOM     15  C   UNL     1      -3.615  13.450  -1.710  1.00  0.00    +0.004 A 
ATOM     16  C   UNL     1      -2.805  11.779  -0.175  1.00  0.00    +0.000 A 
ATOM     17  C   UNL     1      -3.859  12.515  -0.707  1.00  0.00    +0.000 A 
ENDBRANCH   2   3
BRANCH   2  18
ATOM     18  C   UNL     1       4.885  12.789  -1.261  1.00  0.00    +0.078 C 
ATOM     19  C   UNL     1       6.058  12.779  -0.267  1.00  0.00    +0.013 C 
ATOM     20  C   UNL     1       4.598  11.355  -1.743  1.00  0.00    +0.013 C 
ATOM     21  C   UNL     1       7.302  12.134  -0.874  1.00  0.00    +0.001 C 
ATOM     22  C   UNL     1       5.838  10.711  -2.357  1.00  0.00    +0.001 C 
ATOM     23  C   UNL     1       7.016  10.727  -1.388  1.00  0.00    +0.000 C 
ENDBRANCH   2  18
TORSDOF 2
ENDMDL
MODEL 5
REMARK VINA RESULT:    -6.723      2.690      7.438
REMARK INTER + INTRA:          -7.846
REMARK INTER:                  -7.508
REMARK INTRA:                  -0.337
REMARK UNBOUND:                -0.337
REMARK SMILES O=C(C1CCCCC1)N1CC(=O)N2CCc3ccccc3[C@@H]2C1
REMARK SMILES IDX 1 1 2 2 9 3 23 4 10 5 22 6 11 7 13 8 21 9 12 10 14 11 16 12
REMARK SMILES IDX 20 13 15 14 17 15 19 16 18 17 3 18 4 19 8 20 5 21 7 22 6 23
REMARK H PARENT
ROOT
ATOM      1  O   UNL     1       3.649  16.779   2.032  1.00  0.00    -0.275 OA
ATOM      2  C   UNL     1       4.160  16.272   1.032  1.00  0.00    +0.226 C 
ENDROOT
BRANCH   2   3
ATOM      3  N   UNL     1       3.516  15.251   0.340  1.00  0.00    -0.331 N 
ATOM      4  C   UNL     1       2.064  15.121   0.199  1.00  0.00    +0.150 C 
ATOM      5  C   UNL     1       4.309  14.556  -0.676  1.00  0.00    +0.219 C 
ATOM      6  C   UNL     1       1.671  13.638   0.030  1.00  0.00    +0.135 C 
ATOM      7  C   UNL     1       3.695  13.326  -1.367  1.00  0.00    +0.242 C 
ATOM      8  N   UNL     1       2.342  13.084  -1.155  1.00  0.00    -0.332 N 
ATOM      9  C   UNL     1       0.159  13.442   0.030  1.00  0.00    -0.020 A 
ATOM     10  O   UNL     1       4.370  12.649  -2.144  1.00  0.00    -0.273 OA
ATOM     11  C   UNL     1       1.715  11.943  -1.805  1.00  0.00    +0.125 C 
ATOM     12  C   UNL     1      -0.499  12.798  -1.037  1.00  0.00    -0.041 A 
ATOM     13  C   UNL     1      -0.607  13.866   1.131  1.00  0.00    +0.006 A 
ATOM     14  C   UNL     1       0.286  12.280  -2.214  1.00  0.00    +0.057 C 
ATOM     15  C   UNL     1      -1.895  12.657  -1.020  1.00  0.00    +0.004 A 
ATOM     16  C   UNL     1      -1.993  13.705   1.147  1.00  0.00    +0.000 A 
ATOM     17  C   UNL     1      -2.638  13.110   0.067  1.00  0.00    +0.000 A 
ENDBRANCH   2   3
BRANCH   2  18
ATOM     18  C   UNL     1       5.494  16.789   0.486  1.00  0.00    +0.078 C 
ATOM     19  C   UNL     1       5.340  18.237  -0.007  1.00  0.00    +0.013 C 
ATOM     20  C   UNL     1       6.595  16.718   1.559  1.00  0.00    +0.013 C 
ATOM     21  C   UNL     1       6.662  18.797  -0.527  1.00  0.00    +0.001 C 
ATOM     22  C   UNL     1       7.921  17.270   1.040  1.00  0.00    +0.001 C 
ATOM     23  C   UNL     1       7.768  18.695   0.519  1.00  0.00    +0.000 C 
ENDBRANCH   2  18
TORSDOF 2
ENDMDL
MODEL 6
REMARK VINA RESULT:    -6.589      2.026      3.781
REMARK INTER + INTRA:          -7.696
REMARK INTER:                  -7.369
REMARK INTRA:                  -0.328
REMARK UNBOUND:                -0.337
REMARK SMILES O=C(C1CCCCC1)N1CC(=O)N2CCc3ccccc3[C@@H]2C1
REMARK SMILES IDX 1 1 2 2 9 3 23 4 10 5 22 6 11 7 13 8 21 9 12 10 14 11 16 12
REMARK SMILES IDX 20 13 15 14 17 15 19 16 18 17 3 18 4 19 8 20 5 21 7 22 6 23
REMARK H PARENT
ROOT
ATOM      1  O   UNL     1      -1.283  13.051  -0.443  1.00  0.00    -0.275 OA
ATOM      2  C   UNL     1      -0.545  12.943  -1.424  1.00  0.00    +0.226 C 
ENDROOT
BRANCH   2   3
ATOM      3  N   UNL     1       0.837  12.884  -1.276  1.00  0.00    -0.331 N 
ATOM      4  C   UNL     1       1.586  13.473  -0.165  1.00  0.00    +0.150 C 
ATOM      5  C   UNL     1       1.519  11.802  -1.988  1.00  0.00    +0.219 C 
ATOM      6  C   UNL     1       3.013  13.847  -0.617  1.00  0.00    +0.135 C 
ATOM      7  C   UNL     1       3.058  11.776  -1.978  1.00  0.00    +0.242 C 
ATOM      8  N   UNL     1       3.704  12.646  -1.106  1.00  0.00    -0.332 N 
ATOM      9  C   UNL     1       3.779  14.600   0.467  1.00  0.00    -0.020 A 
ATOM     10  O   UNL     1       3.670  10.949  -2.656  1.00  0.00    -0.273 OA
ATOM     11  C   UNL     1       5.159  12.642  -1.049  1.00  0.00    +0.125 C 
ATOM     12  C   UNL     1       5.025  14.143   0.939  1.00  0.00    -0.041 A 
ATOM     13  C   UNL     1       3.267  15.805   0.984  1.00  0.00    +0.006 A 
ATOM     14  C   UNL     1       5.638  12.887   0.377  1.00  0.00    +0.057 C 
ATOM     15  C   UNL     1       5.692  14.843   1.955  1.00  0.00    +0.004 A 
ATOM     16  C   UNL     1       3.947  16.504   1.982  1.00  0.00    +0.000 A 
ATOM     17  C   UNL     1       5.154  16.018   2.475  1.00  0.00    +0.000 A 
ENDBRANCH   2   3
BRANCH   2  18
ATOM     18  C   UNL     1      -1.130  12.815  -2.833  1.00  0.00    +0.078 C 
ATOM     19  C   UNL     1      -2.653  12.619  -2.760  1.00  0.00    +0.013 C 
ATOM     20  C   UNL     1      -0.805  14.056  -3.683  1.00  0.00    +0.013 C 
ATOM     21  C   UNL     1      -3.275  12.521  -4.151  1.00  0.00    +0.001 C 
ATOM     22  C   UNL     1      -1.418  13.958  -5.078  1.00  0.00    +0.001 C 
ATOM     23  C   UNL     1      -2.925  13.731  -5.012  1.00  0.00    +0.000 C 
ENDBRANCH   2  18
TORSDOF 2
ENDMDL
MODEL 7
REMARK VINA RESULT:    -6.464      1.427      2.154
REMARK INTER + INTRA:          -7.556
REMARK INTER:                  -7.180
REMARK INTRA:                  -0.377
REMARK UNBOUND:                -0.337
REMARK SMILES O=C(C1CCCCC1)N1CC(=O)N2CCc3ccccc3[C@@H]2C1
REMARK SMILES IDX 1 1 2 2 9 3 23 4 10 5 22 6 11 7 13 8 21 9 12 10 14 11 16 12
REMARK SMILES IDX 20 13 15 14 17 15 19 16 18 17 3 18 4 19 8 20 5 21 7 22 6 23
REMARK H PARENT
ROOT
ATOM      1  O   UNL     1      -0.309  16.675  -2.292  1.00  0.00    -0.275 OA
ATOM      2  C   UNL     1       0.318  15.641  -2.530  1.00  0.00    +0.226 C 
ENDROOT
BRANCH   2   3
ATOM      3  N   UNL     1       1.392  15.258  -1.733  1.00  0.00    -0.331 N 
ATOM      4  C   UNL     1       2.437  14.315  -2.134  1.00  0.00    +0.150 C 
ATOM      5  C   UNL     1       1.757  16.176  -0.652  1.00  0.00    +0.219 C 
ATOM      6  C   UNL     1       3.018  13.597  -0.897  1.00  0.00    +0.135 C 
ATOM      7  C   UNL     1       2.841  15.733   0.348  1.00  0.00    +0.242 C 
ATOM      8  N   UNL     1       3.570  14.591   0.034  1.00  0.00    -0.332 N 
ATOM      9  C   UNL     1       4.003  12.498  -1.281  1.00  0.00    -0.020 A 
ATOM     10  O   UNL     1       3.096  16.427   1.333  1.00  0.00    -0.273 OA
ATOM     11  C   UNL     1       4.618  14.147   0.941  1.00  0.00    +0.125 C 
ATOM     12  C   UNL     1       5.320  12.483  -0.780  1.00  0.00    -0.041 A 
ATOM     13  C   UNL     1       3.592  11.443  -2.116  1.00  0.00    +0.006 A 
ATOM     14  C   UNL     1       5.789  13.564   0.160  1.00  0.00    +0.057 C 
ATOM     15  C   UNL     1       6.211  11.474  -1.173  1.00  0.00    +0.004 A 
ATOM     16  C   UNL     1       4.481  10.433  -2.487  1.00  0.00    +0.000 A 
ATOM     17  C   UNL     1       5.793  10.454  -2.025  1.00  0.00    +0.000 A 
ENDBRANCH   2   3
BRANCH   2  18
ATOM     18  C   UNL     1      -0.100  14.718  -3.677  1.00  0.00    +0.078 C 
ATOM     19  C   UNL     1      -1.040  13.618  -3.157  1.00  0.00    +0.013 C 
ATOM     20  C   UNL     1      -0.795  15.509  -4.800  1.00  0.00    +0.013 C 
ATOM     21  C   UNL     1      -1.506  12.698  -4.284  1.00  0.00    +0.001 C 
ATOM     22  C   UNL     1      -1.255  14.594  -5.931  1.00  0.00    +0.001 C 
ATOM     23  C   UNL     1      -2.162  13.481  -5.417  1.00  0.00    +0.000 C 
ENDBRANCH   2  18
TORSDOF 2
ENDMDL
MODEL 8
REMARK VINA RESULT:    -6.442      3.089      7.413
REMARK INTER + INTRA:          -7.532
REMARK INTER:                  -7.230
REMARK INTRA:                  -0.302
REMARK UNBOUND:                -0.337
REMARK SMILES O=C(C1CCCCC1)N1CC(=O)N2CCc3ccccc3[C@@H]2C1
REMARK SMILES IDX 1 1 2 2 9 3 23 4 10 5 22 6 11 7 13 8 21 9 12 10 14 11 16 12
REMARK SMILES IDX 20 13 15 14 17 15 19 16 18 17 3 18 4 19 8 20 5 21 7 22 6 23
REMARK H PARENT
ROOT
ATOM      1  O   UNL     1       2.171  14.711  -2.078  1.00  0.00    -0.275 OA
ATOM      2  C   UNL     1       1.949  13.715  -1.387  1.00  0.00    +0.226 C 
ENDROOT
BRANCH   2   3
ATOM      3  N   UNL     1       0.647  13.348  -1.062  1.00  0.00    -0.331 N 
ATOM      4  C   UNL     1      -0.254  14.125  -0.210  1.00  0.00    +0.150 C 
ATOM      5  C   UNL     1      -0.007  12.406  -1.972  1.00  0.00    +0.219 C 
ATOM      6  C   UNL     1      -1.262  13.195   0.498  1.00  0.00    +0.135 C 
ATOM      7  C   UNL     1      -1.390  11.854  -1.583  1.00  0.00    +0.242 C 
ATOM      8  N   UNL     1      -2.036  12.453  -0.507  1.00  0.00    -0.332 N 
ATOM      9  C   UNL     1      -2.123  13.945   1.509  1.00  0.00    -0.020 A 
ATOM     10  O   UNL     1      -1.923  10.977  -2.265  1.00  0.00    -0.273 OA
ATOM     11  C   UNL     1      -3.355  11.976  -0.116  1.00  0.00    +0.125 C 
ATOM     12  C   UNL     1      -3.530  13.918   1.441  1.00  0.00    -0.041 A 
ATOM     13  C   UNL     1      -1.517  14.647   2.568  1.00  0.00    +0.006 A 
ATOM     14  C   UNL     1      -4.224  13.136   0.356  1.00  0.00    +0.057 C 
ATOM     15  C   UNL     1      -4.293  14.640   2.370  1.00  0.00    +0.004 A 
ATOM     16  C   UNL     1      -2.286  15.347   3.498  1.00  0.00    +0.000 A 
ATOM     17  C   UNL     1      -3.673  15.353   3.393  1.00  0.00    +0.000 A 
ENDBRANCH   2   3
BRANCH   2  18
ATOM     18  C   UNL     1       3.096  12.819  -0.912  1.00  0.00    +0.078 C 
ATOM     19  C   UNL     1       3.711  12.067  -2.104  1.00  0.00    +0.013 C 
ATOM     20  C   UNL     1       4.184  13.644  -0.200  1.00  0.00    +0.013 C 
ATOM     21  C   UNL     1       4.882  11.189  -1.671  1.00  0.00    +0.001 C 
ATOM     22  C   UNL     1       5.353  12.768   0.242  1.00  0.00    +0.001 C 
ATOM     23  C   UNL     1       5.947  11.994  -0.931  1.00  0.00    +0.000 C 
ENDBRANCH   2  18
TORSDOF 2
ENDMDL
MODEL 9
REMARK VINA RESULT:    -6.354      2.976      5.549
REMARK INTER + INTRA:          -7.434
REMARK INTER:                  -7.204
REMARK INTRA:                  -0.229
REMARK UNBOUND:                -0.337
REMARK SMILES O=C(C1CCCCC1)N1CC(=O)N2CCc3ccccc3[C@@H]2C1
REMARK SMILES IDX 1 1 2 2 9 3 23 4 10 5 22 6 11 7 13 8 21 9 12 10 14 11 16 12
REMARK SMILES IDX 20 13 15 14 17 15 19 16 18 17 3 18 4 19 8 20 5 21 7 22 6 23
REMARK H PARENT
ROOT
ATOM      1  O   UNL     1       1.677  12.691  -0.868  1.00  0.00    -0.275 OA
ATOM      2  C   UNL     1       2.760  13.265  -0.994  1.00  0.00    +0.226 C 
ENDROOT
BRANCH   2   3
ATOM      3  N   UNL     1       2.882  14.626  -0.734  1.00  0.00    -0.331 N 
ATOM      4  C   UNL     1       4.146  15.364  -0.712  1.00  0.00    +0.150 C 
ATOM      5  C   UNL     1       1.685  15.438  -0.961  1.00  0.00    +0.219 C 
ATOM      6  C   UNL     1       4.044  16.576   0.238  1.00  0.00    +0.135 C 
ATOM      7  C   UNL     1       1.720  16.922  -0.551  1.00  0.00    +0.242 C 
ATOM      8  N   UNL     1       2.956  17.458  -0.204  1.00  0.00    -0.332 N 
ATOM      9  C   UNL     1       5.384  17.286   0.407  1.00  0.00    -0.020 A 
ATOM     10  O   UNL     1       0.700  17.610  -0.621  1.00  0.00    -0.273 OA
ATOM     11  C   UNL     1       3.039  18.862   0.171  1.00  0.00    +0.125 C 
ATOM     12  C   UNL     1       5.526  18.662   0.136  1.00  0.00    -0.041 A 
ATOM     13  C   UNL     1       6.501  16.579   0.887  1.00  0.00    +0.006 A 
ATOM     14  C   UNL     1       4.343  19.472  -0.329  1.00  0.00    +0.057 C 
ATOM     15  C   UNL     1       6.776  19.281   0.275  1.00  0.00    +0.004 A 
ATOM     16  C   UNL     1       7.738  17.208   1.039  1.00  0.00    +0.000 A 
ATOM     17  C   UNL     1       7.878  18.555   0.723  1.00  0.00    +0.000 A 
ENDBRANCH   2   3
BRANCH   2  18
ATOM     18  C   UNL     1       4.018  12.486  -1.388  1.00  0.00    +0.078 C 
ATOM     19  C   UNL     1       4.806  12.080  -0.132  1.00  0.00    +0.013 C 
ATOM     20  C   UNL     1       3.660  11.232  -2.206  1.00  0.00    +0.013 C 
ATOM     21  C   UNL     1       6.051  11.270  -0.487  1.00  0.00    +0.001 C 
ATOM     22  C   UNL     1       4.903  10.424  -2.570  1.00  0.00    +0.001 C 
ATOM     23  C   UNL     1       5.707  10.046  -1.330  1.00  0.00    +0.000 C 
ENDBRANCH   2  18
TORSDOF 2
ENDMDL
