MODEL 1
REMARK VINA RESULT:    -7.357      0.000      0.000
REMARK INTER + INTRA:          -8.577
REMARK INTER:                  -8.217
REMARK INTRA:                  -0.360
REMARK UNBOUND:                -0.360
REMARK SMILES O=C(C1CCCCC1)N1CC(=O)N2CCc3ccccc3[C@@H]2C1
REMARK SMILES IDX 1 1 2 2 9 3 23 4 10 5 22 6 11 7 13 8 21 9 12 10 14 11 16 12
REMARK SMILES IDX 20 13 15 14 17 15 19 16 18 17 3 18 4 19 8 20 5 21 7 22 6 23
REMARK H PARENT
ROOT
ATOM      1  O   UNL     1     -11.628  -8.640  26.032  1.00  0.00    -0.275 OA
ATOM      2  C   UNL     1     -12.641  -9.327  26.167  1.00  0.00    +0.226 C 
ENDROOT
BRANCH   2   3
ATOM      3  N   UNL     1     -12.917  -9.964  27.373  1.00  0.00    -0.331 N 
ATOM      4  C   UNL     1     -13.518 -11.293  27.500  1.00  0.00    +0.150 C 
ATOM      5  C   UNL     1     -12.154  -9.507  28.536  1.00  0.00    +0.219 C 
ATOM      6  C   UNL     1     -14.303 -11.405  28.824  1.00  0.00    +0.135 C 
ATOM      7  C   UNL     1     -12.522 -10.074  29.920  1.00  0.00    +0.242 C 
ATOM      8  N   UNL     1     -13.398 -11.153  29.954  1.00  0.00    -0.332 N 
ATOM      9  C   UNL     1     -15.068 -12.720  28.928  1.00  0.00    -0.020 A 
ATOM     10  O   UNL     1     -11.980  -9.633  30.935  1.00  0.00    -0.273 OA
ATOM     11  C   UNL     1     -13.757 -11.734  31.240  1.00  0.00    +0.125 C 
ATOM     12  C   UNL     1     -14.884 -13.594  30.017  1.00  0.00    -0.041 A 
ATOM     13  C   UNL     1     -16.018 -13.062  27.948  1.00  0.00    +0.006 A 
ATOM     14  C   UNL     1     -13.916 -13.244  31.118  1.00  0.00    +0.057 C 
ATOM     15  C   UNL     1     -15.583 -14.809  30.071  1.00  0.00    +0.004 A 
ATOM     16  C   UNL     1     -16.722 -14.264  28.019  1.00  0.00    +0.000 A 
ATOM     17  C   UNL     1     -16.497 -15.143  29.074  1.00  0.00    +0.000 A 
ENDBRANCH   2   3
BRANCH   2  18
ATOM     18  C   UNL     1     -13.658  -9.457  25.029  1.00  0.00    +0.078 C 
ATOM     19  C   UNL     1     -14.090  -8.064  24.542  1.00  0.00    +0.013 C 
ATOM     20  C   UNL     1     -13.073 -10.262  23.854  1.00  0.00    +0.013 C 
ATOM     21  C   UNL     1     -15.078  -8.156  23.382  1.00  0.00    +0.001 C 
ATOM     22  C   UNL     1     -14.062 -10.362  22.696  1.00  0.00    +0.001 C 
ATOM     23  C   UNL     1     -14.520  -8.984  22.229  1.00  0.00    +0.000 C 
ENDBRANCH   2  18
TORSDOF 2
ENDMDL
MODEL 2
REMARK VINA RESULT:    -7.116      9.281     12.164
REMARK INTER + INTRA:          -8.308
REMARK INTER:                  -7.985
REMARK INTRA:                  -0.323
REMARK UNBOUND:                -0.360
REMARK SMILES O=C(C1CCCCC1)N1CC(=O)N2CCc3ccccc3[C@@H]2C1
REMARK SMILES IDX 1 1 2 2 9 3 23 4 10 5 22 6 11 7 13 8 21 9 12 10 14 11 16 12
REMARK SMILES IDX 20 13 15 14 17 15 19 16 18 17 3 18 4 19 8 20 5 21 7 22 6 23
REMARK H PARENT
ROOT
ATOM      1  O   UNL     1     -15.162 -17.365  19.298  1.00  0.00    -0.275 OA
ATOM      2  C   UNL     1     -14.398 -16.720  18.578  1.00  0.00    +0.226 C 
ENDROOT
BRANCH   2   3
ATOM      3  N   UNL     1     -14.858 -15.632  17.842  1.00  0.00    -0.331 N 
ATOM      4  C   UNL     1     -14.802 -14.238  18.285  1.00  0.00    +0.150 C 
ATOM      5  C   UNL     1     -14.963 -15.827  16.395  1.00  0.00    +0.219 C 
ATOM      6  C   UNL     1     -15.945 -13.423  17.643  1.00  0.00    +0.135 C 
ATOM      7  C   UNL     1     -15.603 -14.709  15.551  1.00  0.00    +0.242 C 
ATOM      8  N   UNL     1     -15.834 -13.490  16.179  1.00  0.00    -0.332 N 
ATOM      9  C   UNL     1     -16.015 -12.002  18.192  1.00  0.00    -0.020 A 
ATOM     10  O   UNL     1     -15.811 -14.880  14.349  1.00  0.00    -0.273 OA
ATOM     11  C   UNL     1     -16.419 -12.398  15.414  1.00  0.00    +0.125 C 
ATOM     12  C   UNL     1     -15.958 -10.881  17.340  1.00  0.00    -0.041 A 
ATOM     13  C   UNL     1     -16.187 -11.787  19.572  1.00  0.00    +0.006 A 
ATOM     14  C   UNL     1     -15.827 -11.063  15.850  1.00  0.00    +0.057 C 
ATOM     15  C   UNL     1     -15.997  -9.586  17.878  1.00  0.00    +0.004 A 
ATOM     16  C   UNL     1     -16.244 -10.495  20.095  1.00  0.00    +0.000 A 
ATOM     17  C   UNL     1     -16.138  -9.395  19.250  1.00  0.00    +0.000 A 
ENDBRANCH   2   3
BRANCH   2  18
ATOM     18  C   UNL     1     -12.907 -17.060  18.513  1.00  0.00    +0.078 C 
ATOM     19  C   UNL     1     -12.154 -16.370  19.662  1.00  0.00    +0.013 C 
ATOM     20  C   UNL     1     -12.683 -18.582  18.584  1.00  0.00    +0.013 C 
ATOM     21  C   UNL     1     -10.667 -16.716  19.648  1.00  0.00    +0.001 C 
ATOM     22  C   UNL     1     -11.197 -18.932  18.563  1.00  0.00    +0.001 C 
ATOM     23  C   UNL     1     -10.439 -18.224  19.681  1.00  0.00    +0.000 C 
ENDBRANCH   2  18
TORSDOF 2
ENDMDL
MODEL 3
REMARK VINA RESULT:    -7.083      4.634      6.515
REMARK INTER + INTRA:          -8.272
REMARK INTER:                  -8.530
REMARK INTRA:                   0.257
REMARK UNBOUND:                -0.360
REMARK SMILES O=C(C1CCCCC1)N1CC(=O)N2CCc3ccccc3[C@@H]2C1
REMARK SMILES IDX 1 1 2 2 9 3 23 4 10 5 22 6 11 7 13 8 21 9 12 10 14 11 16 12
REMARK SMILES IDX 20 13 15 14 17 15 19 16 18 17 3 18 4 19 8 20 5 21 7 22 6 23
REMARK H PARENT
ROOT
ATOM      1  O   UNL     1     -12.236 -12.633  30.470  1.00  0.00    -0.275 OA
ATOM      2  C   UNL     1     -12.756 -13.335  29.600  1.00  0.00    +0.226 C 
ENDROOT
BRANCH   2   3
ATOM      3  N   UNL     1     -11.977 -14.012  28.668  1.00  0.00    -0.331 N 
ATOM      4  C   UNL     1     -12.458 -14.513  27.379  1.00  0.00    +0.150 C 
ATOM      5  C   UNL     1     -10.530 -13.801  28.758  1.00  0.00    +0.219 C 
ATOM      6  C   UNL     1     -11.636 -15.742  26.939  1.00  0.00    +0.135 C 
ATOM      7  C   UNL     1      -9.612 -14.636  27.847  1.00  0.00    +0.242 C 
ATOM      8  N   UNL     1     -10.218 -15.373  26.835  1.00  0.00    -0.332 N 
ATOM      9  C   UNL     1     -12.200 -16.386  25.676  1.00  0.00    -0.020 A 
ATOM     10  O   UNL     1      -8.388 -14.570  27.971  1.00  0.00    -0.273 OA
ATOM     11  C   UNL     1      -9.386 -16.162  25.937  1.00  0.00    +0.125 C 
ATOM     12  C   UNL     1     -11.404 -16.577  24.530  1.00  0.00    -0.041 A 
ATOM     13  C   UNL     1     -13.528 -16.849  25.654  1.00  0.00    +0.006 A 
ATOM     14  C   UNL     1      -9.959 -16.146  24.526  1.00  0.00    +0.057 C 
ATOM     15  C   UNL     1     -11.958 -17.148  23.375  1.00  0.00    +0.004 A 
ATOM     16  C   UNL     1     -14.066 -17.432  24.506  1.00  0.00    +0.000 A 
ATOM     17  C   UNL     1     -13.285 -17.572  23.363  1.00  0.00    +0.000 A 
ENDBRANCH   2   3
BRANCH   2  18
ATOM     18  C   UNL     1     -14.274 -13.529  29.554  1.00  0.00    +0.078 C 
ATOM     19  C   UNL     1     -14.855 -12.872  28.291  1.00  0.00    +0.013 C 
ATOM     20  C   UNL     1     -14.643 -15.023  29.582  1.00  0.00    +0.013 C 
ATOM     21  C   UNL     1     -16.365 -13.077  28.196  1.00  0.00    +0.001 C 
ATOM     22  C   UNL     1     -16.153 -15.231  29.495  1.00  0.00    +0.001 C 
ATOM     23  C   UNL     1     -16.740 -14.554  28.260  1.00  0.00    +0.000 C 
ENDBRANCH   2  18
TORSDOF 2
ENDMDL
MODEL 4
REMARK VINA RESULT:    -6.891      8.760     11.705
REMARK INTER + INTRA:          -8.057
REMARK INTER:                  -7.750
REMARK INTRA:                  -0.307
REMARK UNBOUND:                -0.360
REMARK SMILES O=C(C1CCCCC1)N1CC(=O)N2CCc3ccccc3[C@@H]2C1
REMARK SMILES IDX 1 1 2 2 9 3 23 4 10 5 22 6 11 7 13 8 21 9 12 10 14 11 16 12
REMARK SMILES IDX 20 13 15 14 17 15 19 16 18 17 3 18 4 19 8 20 5 21 7 22 6 23
REMARK H PARENT
ROOT
ATOM      1  O   UNL     1      -9.279 -17.059  22.796  1.00  0.00    -0.275 OA
ATOM      2  C   UNL     1     -10.433 -17.094  22.365  1.00  0.00    +0.226 C 
ENDROOT
BRANCH   2   3
ATOM      3  N   UNL     1     -10.701 -17.535  21.073  1.00  0.00    -0.331 N 
ATOM      4  C   UNL     1     -11.472 -16.790  20.076  1.00  0.00    +0.150 C 
ATOM      5  C   UNL     1      -9.791 -18.548  20.534  1.00  0.00    +0.219 C 
ATOM      6  C   UNL     1     -12.158 -17.761  19.092  1.00  0.00    +0.135 C 
ATOM      7  C   UNL     1     -10.125 -19.177  19.169  1.00  0.00    +0.242 C 
ATOM      8  N   UNL     1     -11.140 -18.585  18.425  1.00  0.00    -0.332 N 
ATOM      9  C   UNL     1     -13.091 -17.035  18.128  1.00  0.00    -0.020 A 
ATOM     10  O   UNL     1      -9.448 -20.110  18.733  1.00  0.00    -0.273 OA
ATOM     11  C   UNL     1     -11.475 -19.135  17.120  1.00  0.00    +0.125 C 
ATOM     12  C   UNL     1     -12.947 -17.158  16.732  1.00  0.00    -0.041 A 
ATOM     13  C   UNL     1     -14.154 -16.260  18.626  1.00  0.00    +0.006 A 
ATOM     14  C   UNL     1     -11.855 -18.020  16.152  1.00  0.00    +0.057 C 
ATOM     15  C   UNL     1     -13.804 -16.457  15.872  1.00  0.00    +0.004 A 
ATOM     16  C   UNL     1     -15.014 -15.580  17.762  1.00  0.00    +0.000 A 
ATOM     17  C   UNL     1     -14.832 -15.670  16.385  1.00  0.00    +0.000 A 
ENDBRANCH   2   3
BRANCH   2  18
ATOM     18  C   UNL     1     -11.615 -16.704  23.258  1.00  0.00    +0.078 C 
ATOM     19  C   UNL     1     -12.747 -17.735  23.121  1.00  0.00    +0.013 C 
ATOM     20  C   UNL     1     -11.183 -16.595  24.731  1.00  0.00    +0.013 C 
ATOM     21  C   UNL     1     -13.929 -17.395  24.026  1.00  0.00    +0.001 C 
ATOM     22  C   UNL     1     -12.361 -16.248  25.637  1.00  0.00    +0.001 C 
ATOM     23  C   UNL     1     -13.501 -17.249  25.483  1.00  0.00    +0.000 C 
ENDBRANCH   2  18
TORSDOF 2
ENDMDL
MODEL 5
REMARK VINA RESULT:    -6.744      8.444     11.181
REMARK INTER + INTRA:          -7.892
REMARK INTER:                  -7.592
REMARK INTRA:                  -0.300
REMARK UNBOUND:                -0.360
REMARK SMILES O=C(C1CCCCC1)N1CC(=O)N2CCc3ccccc3[C@@H]2C1
REMARK SMILES IDX 1 1 2 2 9 3 23 4 10 5 22 6 11 7 13 8 21 9 12 10 14 11 16 12
REMARK SMILES IDX 20 13 15 14 17 15 19 16 18 17 3 18 4 19 8 20 5 21 7 22 6 23
REMARK H PARENT
ROOT
ATOM      1  O   UNL     1     -12.743  -5.685  15.933  1.00  0.00    -0.275 OA
ATOM      2  C   UNL     1     -13.962  -5.550  16.055  1.00  0.00    +0.226 C 
ENDROOT
BRANCH   2   3
ATOM      3  N   UNL     1     -14.637  -6.100  17.140  1.00  0.00    -0.331 N 
ATOM      4  C   UNL     1     -14.598  -7.512  17.522  1.00  0.00    +0.150 C 
ATOM      5  C   UNL     1     -15.011  -5.170  18.208  1.00  0.00    +0.219 C 
ATOM      6  C   UNL     1     -15.902  -7.910  18.246  1.00  0.00    +0.135 C 
ATOM      7  C   UNL     1     -15.885  -5.696  19.361  1.00  0.00    +0.242 C 
ATOM      8  N   UNL     1     -16.077  -7.071  19.440  1.00  0.00    -0.332 N 
ATOM      9  C   UNL     1     -15.967  -9.407  18.529  1.00  0.00    -0.020 A 
ATOM     10  O   UNL     1     -16.313  -4.922  20.218  1.00  0.00    -0.273 OA
ATOM     11  C   UNL     1     -16.881  -7.614  20.525  1.00  0.00    +0.125 C 
ATOM     12  C   UNL     1     -16.162  -9.901  19.834  1.00  0.00    -0.041 A 
ATOM     13  C   UNL     1     -15.879 -10.329  17.470  1.00  0.00    +0.006 A 
ATOM     14  C   UNL     1     -16.315  -8.949  20.993  1.00  0.00    +0.057 C 
ATOM     15  C   UNL     1     -16.191 -11.283  20.066  1.00  0.00    +0.004 A 
ATOM     16  C   UNL     1     -15.927 -11.703  17.709  1.00  0.00    +0.000 A 
ATOM     17  C   UNL     1     -16.072 -12.180  19.008  1.00  0.00    +0.000 A 
ENDBRANCH   2   3
BRANCH   2  18
ATOM     18  C   UNL     1     -14.763  -4.726  15.043  1.00  0.00    +0.078 C 
ATOM     19  C   UNL     1     -14.359  -3.245  15.126  1.00  0.00    +0.013 C 
ATOM     20  C   UNL     1     -14.547  -5.246  13.610  1.00  0.00    +0.013 C 
ATOM     21  C   UNL     1     -15.115  -2.398  14.105  1.00  0.00    +0.001 C 
ATOM     22  C   UNL     1     -15.308  -4.406  12.588  1.00  0.00    +0.001 C 
ATOM     23  C   UNL     1     -14.935  -2.930  12.687  1.00  0.00    +0.000 C 
ENDBRANCH   2  18
TORSDOF 2
ENDMDL
MODEL 6
REMARK VINA RESULT:    -6.671      8.468     10.918
REMARK INTER + INTRA:          -7.811
REMARK INTER:                  -7.474
REMARK INTRA:                  -0.338
REMARK UNBOUND:                -0.360
REMARK SMILES O=C(C1CCCCC1)N1CC(=O)N2CCc3ccccc3[C@@H]2C1
REMARK SMILES IDX 1 1 2 2 9 3 23 4 10 5 22 6 11 7 13 8 21 9 12 10 14 11 16 12
REMARK SMILES IDX 20 13 15 14 17 15 19 16 18 17 3 18 4 19 8 20 5 21 7 22 6 23
REMARK H PARENT
ROOT
ATOM      1  O   UNL     1     -14.243  -5.745  15.323  1.00  0.00    -0.275 OA
ATOM      2  C   UNL     1     -14.326  -5.446  16.515  1.00  0.00    +0.226 C 
ENDROOT
BRANCH   2   3
ATOM      3  N   UNL     1     -14.873  -6.332  17.438  1.00  0.00    -0.331 N 
ATOM      4  C   UNL     1     -14.741  -7.789  17.379  1.00  0.00    +0.150 C 
ATOM      5  C   UNL     1     -15.181  -5.783  18.760  1.00  0.00    +0.219 C 
ATOM      6  C   UNL     1     -15.953  -8.467  18.051  1.00  0.00    +0.135 C 
ATOM      7  C   UNL     1     -15.921  -6.680  19.769  1.00  0.00    +0.242 C 
ATOM      8  N   UNL     1     -16.048  -8.028  19.451  1.00  0.00    -0.332 N 
ATOM      9  C   UNL     1     -15.930  -9.982  17.881  1.00  0.00    -0.020 A 
ATOM     10  O   UNL     1     -16.296  -6.220  20.849  1.00  0.00    -0.273 OA
ATOM     11  C   UNL     1     -16.723  -8.916  20.386  1.00  0.00    +0.125 C 
ATOM     12  C   UNL     1     -15.981 -10.848  18.992  1.00  0.00    -0.041 A 
ATOM     13  C   UNL     1     -15.906 -10.547  16.593  1.00  0.00    +0.006 A 
ATOM     14  C   UNL     1     -16.062 -10.289  20.389  1.00  0.00    +0.057 C 
ATOM     15  C   UNL     1     -15.931 -12.237  18.804  1.00  0.00    +0.004 A 
ATOM     16  C   UNL     1     -15.875 -11.931  16.415  1.00  0.00    +0.000 A 
ATOM     17  C   UNL     1     -15.877 -12.775  17.521  1.00  0.00    +0.000 A 
ENDBRANCH   2   3
BRANCH   2  18
ATOM     18  C   UNL     1     -13.778  -4.111  17.028  1.00  0.00    +0.078 C 
ATOM     19  C   UNL     1     -12.249  -4.072  16.878  1.00  0.00    +0.013 C 
ATOM     20  C   UNL     1     -14.407  -2.927  16.272  1.00  0.00    +0.013 C 
ATOM     21  C   UNL     1     -11.672  -2.739  17.348  1.00  0.00    +0.001 C 
ATOM     22  C   UNL     1     -13.839  -1.592  16.746  1.00  0.00    +0.001 C 
ATOM     23  C   UNL     1     -12.318  -1.559  16.629  1.00  0.00    +0.000 C 
ENDBRANCH   2  18
TORSDOF 2
ENDMDL
MODEL 7
REMARK VINA RESULT:    -6.624      6.064      8.694
REMARK INTER + INTRA:          -7.759
REMARK INTER:                  -7.449
REMARK INTRA:                  -0.310
REMARK UNBOUND:                -0.360
REMARK SMILES O=C(C1CCCCC1)N1CC(=O)N2CCc3ccccc3[C@@H]2C1
REMARK SMILES IDX 1 1 2 2 9 3 23 4 10 5 22 6 11 7 13 8 21 9 12 10 14 11 16 12
REMARK SMILES IDX 20 13 15 14 17 15 19 16 18 17 3 18 4 19 8 20 5 21 7 22 6 23
REMARK H PARENT
ROOT
ATOM      1  O   UNL     1     -11.911 -14.378  28.281  1.00  0.00    -0.275 OA
ATOM      2  C   UNL     1     -12.776 -15.043  27.706  1.00  0.00    +0.226 C 
ENDROOT
BRANCH   2   3
ATOM      3  N   UNL     1     -12.496 -15.699  26.512  1.00  0.00    -0.331 N 
ATOM      4  C   UNL     1     -11.152 -15.943  25.985  1.00  0.00    +0.150 C 
ATOM      5  C   UNL     1     -13.541 -16.589  26.002  1.00  0.00    +0.219 C 
ATOM      6  C   UNL     1     -11.184 -16.023  24.444  1.00  0.00    +0.135 C 
ATOM      7  C   UNL     1     -13.345 -17.225  24.614  1.00  0.00    +0.242 C 
ATOM      8  N   UNL     1     -12.091 -17.102  24.027  1.00  0.00    -0.332 N 
ATOM      9  C   UNL     1      -9.785 -16.127  23.846  1.00  0.00    -0.020 A 
ATOM     10  O   UNL     1     -14.249 -17.889  24.102  1.00  0.00    -0.273 OA
ATOM     11  C   UNL     1     -11.855 -17.706  22.724  1.00  0.00    +0.125 C 
ATOM     12  C   UNL     1      -9.429 -17.187  22.989  1.00  0.00    -0.041 A 
ATOM     13  C   UNL     1      -8.830 -15.128  24.108  1.00  0.00    +0.006 A 
ATOM     14  C   UNL     1     -10.435 -18.252  22.637  1.00  0.00    +0.057 C 
ATOM     15  C   UNL     1      -8.127 -17.270  22.476  1.00  0.00    +0.004 A 
ATOM     16  C   UNL     1      -7.542 -15.209  23.579  1.00  0.00    +0.000 A 
ATOM     17  C   UNL     1      -7.187 -16.285  22.771  1.00  0.00    +0.000 A 
ENDBRANCH   2   3
BRANCH   2  18
ATOM     18  C   UNL     1     -14.169 -15.213  28.319  1.00  0.00    +0.078 C 
ATOM     19  C   UNL     1     -14.056 -15.470  29.831  1.00  0.00    +0.013 C 
ATOM     20  C   UNL     1     -15.041 -13.971  28.065  1.00  0.00    +0.013 C 
ATOM     21  C   UNL     1     -15.430 -15.610  30.481  1.00  0.00    +0.001 C 
ATOM     22  C   UNL     1     -16.419 -14.111  28.707  1.00  0.00    +0.001 C 
ATOM     23  C   UNL     1     -16.313 -14.398  30.202  1.00  0.00    +0.000 C 
ENDBRANCH   2  18
TORSDOF 2
ENDMDL
MODEL 8
REMARK VINA RESULT:    -6.385      8.535     11.822
REMARK INTER + INTRA:          -7.492
REMARK INTER:                  -7.177
REMARK INTRA:                  -0.314
REMARK UNBOUND:                -0.360
REMARK SMILES O=C(C1CCCCC1)N1CC(=O)N2CCc3ccccc3[C@@H]2C1
REMARK SMILES IDX 1 1 2 2 9 3 23 4 10 5 22 6 11 7 13 8 21 9 12 10 14 11 16 12
REMARK SMILES IDX 20 13 15 14 17 15 19 16 18 17 3 18 4 19 8 20 5 21 7 22 6 23
REMARK H PARENT
ROOT
ATOM      1  O   UNL     1     -14.077  -6.771  13.661  1.00  0.00    -0.275 OA
ATOM      2  C   UNL     1     -15.176  -6.927  14.195  1.00  0.00    +0.226 C 
ENDROOT
BRANCH   2   3
ATOM      3  N   UNL     1     -15.305  -6.918  15.580  1.00  0.00    -0.331 N 
ATOM      4  C   UNL     1     -15.060  -8.069  16.451  1.00  0.00    +0.150 C 
ATOM      5  C   UNL     1     -15.218  -5.610  16.231  1.00  0.00    +0.219 C 
ATOM      6  C   UNL     1     -15.917  -7.968  17.730  1.00  0.00    +0.135 C 
ATOM      7  C   UNL     1     -15.499  -5.525  17.742  1.00  0.00    +0.242 C 
ATOM      8  N   UNL     1     -15.593  -6.723  18.441  1.00  0.00    -0.332 N 
ATOM      9  C   UNL     1     -15.805  -9.219  18.596  1.00  0.00    -0.020 A 
ATOM     10  O   UNL     1     -15.546  -4.429  18.304  1.00  0.00    -0.273 OA
ATOM     11  C   UNL     1     -15.838  -6.690  19.876  1.00  0.00    +0.125 C 
ATOM     12  C   UNL     1     -15.408  -9.146  19.946  1.00  0.00    -0.041 A 
ATOM     13  C   UNL     1     -16.146 -10.476  18.065  1.00  0.00    +0.006 A 
ATOM     14  C   UNL     1     -15.083  -7.815  20.573  1.00  0.00    +0.057 C 
ATOM     15  C   UNL     1     -15.288 -10.317  20.708  1.00  0.00    +0.004 A 
ATOM     16  C   UNL     1     -16.042 -11.634  18.837  1.00  0.00    +0.000 A 
ATOM     17  C   UNL     1     -15.603 -11.556  20.155  1.00  0.00    +0.000 A 
ENDBRANCH   2   3
BRANCH   2  18
ATOM     18  C   UNL     1     -16.444  -7.078  13.349  1.00  0.00    +0.078 C 
ATOM     19  C   UNL     1     -17.641  -7.434  14.245  1.00  0.00    +0.013 C 
ATOM     20  C   UNL     1     -16.744  -5.787  12.566  1.00  0.00    +0.013 C 
ATOM     21  C   UNL     1     -18.931  -7.558  13.437  1.00  0.00    +0.001 C 
ATOM     22  C   UNL     1     -18.028  -5.911  11.750  1.00  0.00    +0.001 C 
ATOM     23  C   UNL     1     -19.215  -6.296  12.629  1.00  0.00    +0.000 C 
ENDBRANCH   2  18
TORSDOF 2
ENDMDL
MODEL 9
REMARK VINA RESULT:    -6.219      9.518     15.227
REMARK INTER + INTRA:          -7.307
REMARK INTER:                  -6.995
REMARK INTRA:                  -0.312
REMARK UNBOUND:                -0.360
REMARK SMILES O=C(C1CCCCC1)N1CC(=O)N2CCc3ccccc3[C@@H]2C1
REMARK SMILES IDX 1 1 2 2 9 3 23 4 10 5 22 6 11 7 13 8 21 9 12 10 14 11 16 12
REMARK SMILES IDX 20 13 15 14 17 15 19 16 18 17 3 18 4 19 8 20 5 21 7 22 6 23
REMARK H PARENT
ROOT
ATOM      1  O   UNL     1     -13.878  -7.417  17.250  1.00  0.00    -0.275 OA
ATOM      2  C   UNL     1     -15.088  -7.194  17.186  1.00  0.00    +0.226 C 
ENDROOT
BRANCH   2   3
ATOM      3  N   UNL     1     -15.692  -6.868  15.976  1.00  0.00    -0.331 N 
ATOM      4  C   UNL     1     -15.067  -6.076  14.915  1.00  0.00    +0.150 C 
ATOM      5  C   UNL     1     -16.792  -7.734  15.547  1.00  0.00    +0.219 C 
ATOM      6  C   UNL     1     -16.143  -5.333  14.095  1.00  0.00    +0.135 C 
ATOM      7  C   UNL     1     -17.590  -7.335  14.292  1.00  0.00    +0.242 C 
ATOM      8  N   UNL     1     -17.076  -6.306  13.511  1.00  0.00    -0.332 N 
ATOM      9  C   UNL     1     -15.528  -4.379  13.075  1.00  0.00    -0.020 A 
ATOM     10  O   UNL     1     -18.591  -7.974  13.964  1.00  0.00    -0.273 OA
ATOM     11  C   UNL     1     -17.787  -5.909  12.304  1.00  0.00    +0.125 C 
ATOM     12  C   UNL     1     -15.842  -4.468  11.704  1.00  0.00    -0.041 A 
ATOM     13  C   UNL     1     -14.665  -3.353  13.500  1.00  0.00    +0.006 A 
ATOM     14  C   UNL     1     -16.803  -5.518  11.209  1.00  0.00    +0.057 C 
ATOM     15  C   UNL     1     -15.240  -3.594  10.787  1.00  0.00    +0.004 A 
ATOM     16  C   UNL     1     -14.085  -2.477  12.582  1.00  0.00    +0.000 A 
ATOM     17  C   UNL     1     -14.364  -2.604  11.225  1.00  0.00    +0.000 A 
ENDBRANCH   2   3
BRANCH   2  18
ATOM     18  C   UNL     1     -15.975  -7.323  18.428  1.00  0.00    +0.078 C 
ATOM     19  C   UNL     1     -15.848  -8.734  19.026  1.00  0.00    +0.013 C 
ATOM     20  C   UNL     1     -15.599  -6.272  19.488  1.00  0.00    +0.013 C 
ATOM     21  C   UNL     1     -16.694  -8.887  20.288  1.00  0.00    +0.001 C 
ATOM     22  C   UNL     1     -16.448  -6.417  20.748  1.00  0.00    +0.001 C 
ATOM     23  C   UNL     1     -16.353  -7.825  21.328  1.00  0.00    +0.000 C 
ENDBRANCH   2  18
TORSDOF 2
ENDMDL
