MODEL 1
REMARK VINA RESULT:    -8.819      0.000      0.000
REMARK INTER + INTRA:         -10.168
REMARK INTER:                  -9.850
REMARK INTRA:                  -0.318
REMARK UNBOUND:                -0.318
REMARK SMILES O=C(C1CCCCC1)N1CC(=O)N2CCc3ccccc3[C@@H]2C1
REMARK SMILES IDX 1 1 2 2 9 3 23 4 10 5 22 6 11 7 13 8 21 9 12 10 14 11 16 12
REMARK SMILES IDX 20 13 15 14 17 15 19 16 18 17 3 18 4 19 8 20 5 21 7 22 6 23
REMARK H PARENT
ROOT
ATOM      1  O   UNL     1     -21.464   8.833 -13.761  1.00  0.00    -0.275 OA
ATOM      2  C   UNL     1     -21.845   9.981 -13.525  1.00  0.00    +0.226 C 
ENDROOT
BRANCH   2   3
ATOM      3  N   UNL     1     -21.765  10.974 -14.495  1.00  0.00    -0.331 N 
ATOM      4  C   UNL     1     -22.372  12.302 -14.386  1.00  0.00    +0.150 C 
ATOM      5  C   UNL     1     -20.651  10.869 -15.439  1.00  0.00    +0.219 C 
ATOM      6  C   UNL     1     -22.707  12.857 -15.787  1.00  0.00    +0.135 C 
ATOM      7  C   UNL     1     -20.598  11.856 -16.620  1.00  0.00    +0.242 C 
ATOM      8  N   UNL     1     -21.480  12.930 -16.593  1.00  0.00    -0.332 N 
ATOM      9  C   UNL     1     -23.477  14.171 -15.714  1.00  0.00    -0.020 A 
ATOM     10  O   UNL     1     -19.740  11.730 -17.496  1.00  0.00    -0.273 OA
ATOM     11  C   UNL     1     -21.451  13.899 -17.679  1.00  0.00    +0.125 C 
ATOM     12  C   UNL     1     -23.011  15.333 -16.361  1.00  0.00    -0.041 A 
ATOM     13  C   UNL     1     -24.704  14.233 -15.029  1.00  0.00    +0.006 A 
ATOM     14  C   UNL     1     -21.728  15.302 -17.151  1.00  0.00    +0.057 C 
ATOM     15  C   UNL     1     -23.727  16.534 -16.253  1.00  0.00    +0.004 A 
ATOM     16  C   UNL     1     -25.419  15.428 -14.942  1.00  0.00    +0.000 A 
ATOM     17  C   UNL     1     -24.925  16.581 -15.545  1.00  0.00    +0.000 A 
ENDBRANCH   2   3
BRANCH   2  18
ATOM     18  C   UNL     1     -22.470  10.336 -12.172  1.00  0.00    +0.078 C 
ATOM     19  C   UNL     1     -23.046   9.076 -11.507  1.00  0.00    +0.013 C 
ATOM     20  C   UNL     1     -21.435  10.991 -11.240  1.00  0.00    +0.013 C 
ATOM     21  C   UNL     1     -23.647   9.388 -10.138  1.00  0.00    +0.001 C 
ATOM     22  C   UNL     1     -22.035  11.312  -9.873  1.00  0.00    +0.001 C 
ATOM     23  C   UNL     1     -22.638  10.072  -9.221  1.00  0.00    +0.000 C 
ENDBRANCH   2  18
TORSDOF 2
ENDMDL
MODEL 2
REMARK VINA RESULT:    -7.902      2.804      6.570
REMARK INTER + INTRA:          -9.143
REMARK INTER:                  -8.890
REMARK INTRA:                  -0.253
REMARK UNBOUND:                -0.318
REMARK SMILES O=C(C1CCCCC1)N1CC(=O)N2CCc3ccccc3[C@@H]2C1
REMARK SMILES IDX 1 1 2 2 9 3 23 4 10 5 22 6 11 7 13 8 21 9 12 10 14 11 16 12
REMARK SMILES IDX 20 13 15 14 17 15 19 16 18 17 3 18 4 19 8 20 5 21 7 22 6 23
REMARK H PARENT
ROOT
ATOM      1  O   UNL     1     -21.148  13.307 -16.943  1.00  0.00    -0.275 OA
ATOM      2  C   UNL     1     -20.776  12.158 -16.697  1.00  0.00    +0.226 C 
ENDROOT
BRANCH   2   3
ATOM      3  N   UNL     1     -21.556  11.305 -15.923  1.00  0.00    -0.331 N 
ATOM      4  C   UNL     1     -21.929  11.547 -14.528  1.00  0.00    +0.150 C 
ATOM      5  C   UNL     1     -22.424  10.380 -16.653  1.00  0.00    +0.219 C 
ATOM      6  C   UNL     1     -22.148  10.210 -13.790  1.00  0.00    +0.135 C 
ATOM      7  C   UNL     1     -23.198   9.317 -15.851  1.00  0.00    +0.242 C 
ATOM      8  N   UNL     1     -23.205   9.444 -14.466  1.00  0.00    -0.332 N 
ATOM      9  C   UNL     1     -22.392  10.411 -12.298  1.00  0.00    -0.020 A 
ATOM     10  O   UNL     1     -23.850   8.451 -16.436  1.00  0.00    -0.273 OA
ATOM     11  C   UNL     1     -23.940   8.472 -13.669  1.00  0.00    +0.125 C 
ATOM     12  C   UNL     1     -23.546   9.907 -11.666  1.00  0.00    -0.041 A 
ATOM     13  C   UNL     1     -21.432  11.072 -11.510  1.00  0.00    +0.006 A 
ATOM     14  C   UNL     1     -24.577   9.146 -12.460  1.00  0.00    +0.057 C 
ATOM     15  C   UNL     1     -23.754  10.131 -10.298  1.00  0.00    +0.004 A 
ATOM     16  C   UNL     1     -21.639  11.275 -10.145  1.00  0.00    +0.000 A 
ATOM     17  C   UNL     1     -22.805  10.814  -9.541  1.00  0.00    +0.000 A 
ENDBRANCH   2   3
BRANCH   2  18
ATOM     18  C   UNL     1     -19.470  11.615 -17.284  1.00  0.00    +0.078 C 
ATOM     19  C   UNL     1     -18.845  10.587 -16.327  1.00  0.00    +0.013 C 
ATOM     20  C   UNL     1     -19.708  10.969 -18.660  1.00  0.00    +0.013 C 
ATOM     21  C   UNL     1     -17.557   9.999 -16.898  1.00  0.00    +0.001 C 
ATOM     22  C   UNL     1     -18.420  10.387 -19.238  1.00  0.00    +0.001 C 
ATOM     23  C   UNL     1     -17.778   9.390 -18.279  1.00  0.00    +0.000 C 
ENDBRANCH   2  18
TORSDOF 2
ENDMDL
MODEL 3
REMARK VINA RESULT:    -7.854      1.607      2.379
REMARK INTER + INTRA:          -9.090
REMARK INTER:                  -8.769
REMARK INTRA:                  -0.321
REMARK UNBOUND:                -0.318
REMARK SMILES O=C(C1CCCCC1)N1CC(=O)N2CCc3ccccc3[C@@H]2C1
REMARK SMILES IDX 1 1 2 2 9 3 23 4 10 5 22 6 11 7 13 8 21 9 12 10 14 11 16 12
REMARK SMILES IDX 20 13 15 14 17 15 19 16 18 17 3 18 4 19 8 20 5 21 7 22 6 23
REMARK H PARENT
ROOT
ATOM      1  O   UNL     1     -22.424  10.413 -11.819  1.00  0.00    -0.275 OA
ATOM      2  C   UNL     1     -22.297  10.017 -12.979  1.00  0.00    +0.226 C 
ENDROOT
BRANCH   2   3
ATOM      3  N   UNL     1     -22.149  10.917 -14.029  1.00  0.00    -0.331 N 
ATOM      4  C   UNL     1     -22.665  12.287 -14.037  1.00  0.00    +0.150 C 
ATOM      5  C   UNL     1     -21.042  10.659 -14.953  1.00  0.00    +0.219 C 
ATOM      6  C   UNL     1     -22.960  12.743 -15.482  1.00  0.00    +0.135 C 
ATOM      7  C   UNL     1     -20.921  11.536 -16.212  1.00  0.00    +0.242 C 
ATOM      8  N   UNL     1     -21.729  12.665 -16.282  1.00  0.00    -0.332 N 
ATOM      9  C   UNL     1     -23.639  14.108 -15.526  1.00  0.00    -0.020 A 
ATOM     10  O   UNL     1     -20.073  11.279 -17.068  1.00  0.00    -0.273 OA
ATOM     11  C   UNL     1     -21.633  13.535 -17.446  1.00  0.00    +0.125 C 
ATOM     12  C   UNL     1     -23.094  15.176 -16.265  1.00  0.00    -0.041 A 
ATOM     13  C   UNL     1     -24.861  14.309 -14.858  1.00  0.00    +0.006 A 
ATOM     14  C   UNL     1     -21.815  14.992 -17.040  1.00  0.00    +0.057 C 
ATOM     15  C   UNL     1     -23.728  16.427 -16.264  1.00  0.00    +0.004 A 
ATOM     16  C   UNL     1     -25.493  15.552 -14.877  1.00  0.00    +0.000 A 
ATOM     17  C   UNL     1     -24.922  16.614 -15.572  1.00  0.00    +0.000 A 
ENDBRANCH   2   3
BRANCH   2  18
ATOM     18  C   UNL     1     -22.243   8.519 -13.294  1.00  0.00    +0.078 C 
ATOM     19  C   UNL     1     -21.217   7.823 -12.385  1.00  0.00    +0.013 C 
ATOM     20  C   UNL     1     -23.625   7.866 -13.116  1.00  0.00    +0.013 C 
ATOM     21  C   UNL     1     -21.162   6.320 -12.648  1.00  0.00    +0.001 C 
ATOM     22  C   UNL     1     -23.575   6.364 -13.387  1.00  0.00    +0.001 C 
ATOM     23  C   UNL     1     -22.536   5.672 -12.510  1.00  0.00    +0.000 C 
ENDBRANCH   2  18
TORSDOF 2
ENDMDL
MODEL 4
REMARK VINA RESULT:    -7.832      2.295      4.750
REMARK INTER + INTRA:          -9.066
REMARK INTER:                  -8.745
REMARK INTRA:                  -0.321
REMARK UNBOUND:                -0.318
REMARK SMILES O=C(C1CCCCC1)N1CC(=O)N2CCc3ccccc3[C@@H]2C1
REMARK SMILES IDX 1 1 2 2 9 3 23 4 10 5 22 6 11 7 13 8 21 9 12 10 14 11 16 12
REMARK SMILES IDX 20 13 15 14 17 15 19 16 18 17 3 18 4 19 8 20 5 21 7 22 6 23
REMARK H PARENT
ROOT
ATOM      1  O   UNL     1     -21.323   8.507 -13.382  1.00  0.00    -0.275 OA
ATOM      2  C   UNL     1     -21.593   9.709 -13.405  1.00  0.00    +0.226 C 
ENDROOT
BRANCH   2   3
ATOM      3  N   UNL     1     -21.306  10.484 -14.524  1.00  0.00    -0.331 N 
ATOM      4  C   UNL     1     -20.633   9.998 -15.729  1.00  0.00    +0.150 C 
ATOM      5  C   UNL     1     -22.117  11.690 -14.702  1.00  0.00    +0.219 C 
ATOM      6  C   UNL     1     -19.870  11.147 -16.421  1.00  0.00    +0.135 C 
ATOM      7  C   UNL     1     -21.746  12.659 -15.839  1.00  0.00    +0.242 C 
ATOM      8  N   UNL     1     -20.810  12.221 -16.770  1.00  0.00    -0.332 N 
ATOM      9  C   UNL     1     -19.032  10.654 -17.596  1.00  0.00    -0.020 A 
ATOM     10  O   UNL     1     -22.332  13.737 -15.952  1.00  0.00    -0.273 OA
ATOM     11  C   UNL     1     -20.444  13.097 -17.873  1.00  0.00    +0.125 C 
ATOM     12  C   UNL     1     -19.189  11.195 -18.888  1.00  0.00    -0.041 A 
ATOM     13  C   UNL     1     -18.045   9.672 -17.396  1.00  0.00    +0.006 A 
ATOM     14  C   UNL     1     -20.197  12.286 -19.140  1.00  0.00    +0.057 C 
ATOM     15  C   UNL     1     -18.423  10.702 -19.955  1.00  0.00    +0.004 A 
ATOM     16  C   UNL     1     -17.275   9.201 -18.460  1.00  0.00    +0.000 A 
ATOM     17  C   UNL     1     -17.471   9.708 -19.741  1.00  0.00    +0.000 A 
ENDBRANCH   2   3
BRANCH   2  18
ATOM     18  C   UNL     1     -22.305  10.375 -12.224  1.00  0.00    +0.078 C 
ATOM     19  C   UNL     1     -23.273   9.382 -11.559  1.00  0.00    +0.013 C 
ATOM     20  C   UNL     1     -21.292  10.889 -11.186  1.00  0.00    +0.013 C 
ATOM     21  C   UNL     1     -23.975  10.003 -10.354  1.00  0.00    +0.001 C 
ATOM     22  C   UNL     1     -21.991  11.519  -9.983  1.00  0.00    +0.001 C 
ATOM     23  C   UNL     1     -22.977  10.550  -9.339  1.00  0.00    +0.000 C 
ENDBRANCH   2  18
TORSDOF 2
ENDMDL
MODEL 5
REMARK VINA RESULT:    -7.828      2.564      3.907
REMARK INTER + INTRA:          -9.060
REMARK INTER:                  -8.862
REMARK INTRA:                  -0.199
REMARK UNBOUND:                -0.318
REMARK SMILES O=C(C1CCCCC1)N1CC(=O)N2CCc3ccccc3[C@@H]2C1
REMARK SMILES IDX 1 1 2 2 9 3 23 4 10 5 22 6 11 7 13 8 21 9 12 10 14 11 16 12
REMARK SMILES IDX 20 13 15 14 17 15 19 16 18 17 3 18 4 19 8 20 5 21 7 22 6 23
REMARK H PARENT
ROOT
ATOM      1  O   UNL     1     -26.081  10.089 -13.038  1.00  0.00    -0.275 OA
ATOM      2  C   UNL     1     -25.066  10.769 -12.877  1.00  0.00    +0.226 C 
ENDROOT
BRANCH   2   3
ATOM      3  N   UNL     1     -24.856  11.925 -13.622  1.00  0.00    -0.331 N 
ATOM      4  C   UNL     1     -24.026  12.007 -14.825  1.00  0.00    +0.150 C 
ATOM      5  C   UNL     1     -25.864  12.978 -13.483  1.00  0.00    +0.219 C 
ATOM      6  C   UNL     1     -23.447  13.428 -14.984  1.00  0.00    +0.135 C 
ATOM      7  C   UNL     1     -25.606  14.332 -14.169  1.00  0.00    +0.242 C 
ATOM      8  N   UNL     1     -24.546  14.400 -15.066  1.00  0.00    -0.332 N 
ATOM      9  C   UNL     1     -22.457  13.518 -16.141  1.00  0.00    -0.020 A 
ATOM     10  O   UNL     1     -26.374  15.277 -13.984  1.00  0.00    -0.273 OA
ATOM     11  C   UNL     1     -24.278  15.656 -15.753  1.00  0.00    +0.125 C 
ATOM     12  C   UNL     1     -22.626  14.451 -17.183  1.00  0.00    -0.041 A 
ATOM     13  C   UNL     1     -21.319  12.691 -16.161  1.00  0.00    +0.006 A 
ATOM     14  C   UNL     1     -23.802  15.395 -17.177  1.00  0.00    +0.057 C 
ATOM     15  C   UNL     1     -21.713  14.492 -18.247  1.00  0.00    +0.004 A 
ATOM     16  C   UNL     1     -20.406  12.751 -17.215  1.00  0.00    +0.000 A 
ATOM     17  C   UNL     1     -20.609  13.643 -18.263  1.00  0.00    +0.000 A 
ENDBRANCH   2   3
BRANCH   2  18
ATOM     18  C   UNL     1     -24.032  10.394 -11.812  1.00  0.00    +0.078 C 
ATOM     19  C   UNL     1     -22.619  10.404 -12.417  1.00  0.00    +0.013 C 
ATOM     20  C   UNL     1     -24.093  11.360 -10.616  1.00  0.00    +0.013 C 
ATOM     21  C   UNL     1     -21.558  10.067 -11.373  1.00  0.00    +0.001 C 
ATOM     22  C   UNL     1     -23.039  11.021  -9.565  1.00  0.00    +0.001 C 
ATOM     23  C   UNL     1     -21.637  10.998 -10.167  1.00  0.00    +0.000 C 
ENDBRANCH   2  18
TORSDOF 2
ENDMDL
MODEL 6
REMARK VINA RESULT:    -7.825      2.421      6.626
REMARK INTER + INTRA:          -9.058
REMARK INTER:                  -8.807
REMARK INTRA:                  -0.251
REMARK UNBOUND:                -0.318
REMARK SMILES O=C(C1CCCCC1)N1CC(=O)N2CCc3ccccc3[C@@H]2C1
REMARK SMILES IDX 1 1 2 2 9 3 23 4 10 5 22 6 11 7 13 8 21 9 12 10 14 11 16 12
REMARK SMILES IDX 20 13 15 14 17 15 19 16 18 17 3 18 4 19 8 20 5 21 7 22 6 23
REMARK H PARENT
ROOT
ATOM      1  O   UNL     1     -21.131  14.335 -16.685  1.00  0.00    -0.275 OA
ATOM      2  C   UNL     1     -21.490  13.187 -16.417  1.00  0.00    +0.226 C 
ENDROOT
BRANCH   2   3
ATOM      3  N   UNL     1     -22.499  12.952 -15.488  1.00  0.00    -0.331 N 
ATOM      4  C   UNL     1     -22.325  12.228 -14.228  1.00  0.00    +0.150 C 
ATOM      5  C   UNL     1     -23.648  13.858 -15.537  1.00  0.00    +0.219 C 
ATOM      6  C   UNL     1     -23.648  11.554 -13.807  1.00  0.00    +0.135 C 
ATOM      7  C   UNL     1     -24.856  13.555 -14.632  1.00  0.00    +0.242 C 
ATOM      8  N   UNL     1     -24.694  12.576 -13.658  1.00  0.00    -0.332 N 
ATOM      9  C   UNL     1     -23.475  10.666 -12.579  1.00  0.00    -0.020 A 
ATOM     10  O   UNL     1     -25.885  14.227 -14.725  1.00  0.00    -0.273 OA
ATOM     11  C   UNL     1     -25.804  12.272 -12.767  1.00  0.00    +0.125 C 
ATOM     12  C   UNL     1     -24.255  10.852 -11.421  1.00  0.00    -0.041 A 
ATOM     13  C   UNL     1     -22.553   9.603 -12.603  1.00  0.00    +0.006 A 
ATOM     14  C   UNL     1     -25.292  11.944 -11.369  1.00  0.00    +0.057 C 
ATOM     15  C   UNL     1     -24.054  10.036 -10.298  1.00  0.00    +0.004 A 
ATOM     16  C   UNL     1     -22.373   8.785 -11.487  1.00  0.00    +0.000 A 
ATOM     17  C   UNL     1     -23.115   9.008 -10.331  1.00  0.00    +0.000 A 
ENDBRANCH   2   3
BRANCH   2  18
ATOM     18  C   UNL     1     -20.875  11.985 -17.140  1.00  0.00    +0.078 C 
ATOM     19  C   UNL     1     -20.384  12.400 -18.536  1.00  0.00    +0.013 C 
ATOM     20  C   UNL     1     -19.707  11.391 -16.331  1.00  0.00    +0.013 C 
ATOM     21  C   UNL     1     -19.732  11.232 -19.272  1.00  0.00    +0.001 C 
ATOM     22  C   UNL     1     -19.058  10.218 -17.061  1.00  0.00    +0.001 C 
ATOM     23  C   UNL     1     -18.598  10.615 -18.460  1.00  0.00    +0.000 C 
ENDBRANCH   2  18
TORSDOF 2
ENDMDL
MODEL 7
REMARK VINA RESULT:    -7.745      1.359      6.564
REMARK INTER + INTRA:          -8.968
REMARK INTER:                  -8.608
REMARK INTRA:                  -0.360
REMARK UNBOUND:                -0.318
REMARK SMILES O=C(C1CCCCC1)N1CC(=O)N2CCc3ccccc3[C@@H]2C1
REMARK SMILES IDX 1 1 2 2 9 3 23 4 10 5 22 6 11 7 13 8 21 9 12 10 14 11 16 12
REMARK SMILES IDX 20 13 15 14 17 15 19 16 18 17 3 18 4 19 8 20 5 21 7 22 6 23
REMARK H PARENT
ROOT
ATOM      1  O   UNL     1     -20.396  12.715 -17.230  1.00  0.00    -0.275 OA
ATOM      2  C   UNL     1     -21.321  12.532 -16.436  1.00  0.00    +0.226 C 
ENDROOT
BRANCH   2   3
ATOM      3  N   UNL     1     -21.369  11.388 -15.646  1.00  0.00    -0.331 N 
ATOM      4  C   UNL     1     -22.008  11.305 -14.331  1.00  0.00    +0.150 C 
ATOM      5  C   UNL     1     -21.200  10.111 -16.343  1.00  0.00    +0.219 C 
ATOM      6  C   UNL     1     -21.321  10.227 -13.467  1.00  0.00    +0.135 C 
ATOM      7  C   UNL     1     -21.099   8.827 -15.500  1.00  0.00    +0.242 C 
ATOM      8  N   UNL     1     -21.402   8.927 -14.147  1.00  0.00    -0.332 N 
ATOM      9  C   UNL     1     -21.856  10.210 -12.039  1.00  0.00    -0.020 A 
ATOM     10  O   UNL     1     -20.845   7.749 -16.040  1.00  0.00    -0.273 OA
ATOM     11  C   UNL     1     -21.339   7.733 -13.316  1.00  0.00    +0.125 C 
ATOM     12  C   UNL     1     -22.388   9.037 -11.466  1.00  0.00    -0.041 A 
ATOM     13  C   UNL     1     -21.783  11.369 -11.245  1.00  0.00    +0.006 A 
ATOM     14  C   UNL     1     -22.438   7.758 -12.261  1.00  0.00    +0.057 C 
ATOM     15  C   UNL     1     -22.897   9.060 -10.159  1.00  0.00    +0.004 A 
ATOM     16  C   UNL     1     -22.276  11.378  -9.939  1.00  0.00    +0.000 A 
ATOM     17  C   UNL     1     -22.842  10.227  -9.400  1.00  0.00    +0.000 A 
ENDBRANCH   2   3
BRANCH   2  18
ATOM     18  C   UNL     1     -22.418  13.585 -16.256  1.00  0.00    +0.078 C 
ATOM     19  C   UNL     1     -21.945  14.943 -16.801  1.00  0.00    +0.013 C 
ATOM     20  C   UNL     1     -23.715  13.162 -16.967  1.00  0.00    +0.013 C 
ATOM     21  C   UNL     1     -23.028  16.010 -16.668  1.00  0.00    +0.001 C 
ATOM     22  C   UNL     1     -24.804  14.223 -16.829  1.00  0.00    +0.001 C 
ATOM     23  C   UNL     1     -24.329  15.580 -17.339  1.00  0.00    +0.000 C 
ENDBRANCH   2  18
TORSDOF 2
ENDMDL
MODEL 8
REMARK VINA RESULT:    -7.734      2.119      4.483
REMARK INTER + INTRA:          -8.956
REMARK INTER:                  -8.704
REMARK INTRA:                  -0.252
REMARK UNBOUND:                -0.318
REMARK SMILES O=C(C1CCCCC1)N1CC(=O)N2CCc3ccccc3[C@@H]2C1
REMARK SMILES IDX 1 1 2 2 9 3 23 4 10 5 22 6 11 7 13 8 21 9 12 10 14 11 16 12
REMARK SMILES IDX 20 13 15 14 17 15 19 16 18 17 3 18 4 19 8 20 5 21 7 22 6 23
REMARK H PARENT
ROOT
ATOM      1  O   UNL     1     -25.244  11.616 -13.601  1.00  0.00    -0.275 OA
ATOM      2  C   UNL     1     -24.014  11.538 -13.588  1.00  0.00    +0.226 C 
ENDROOT
BRANCH   2   3
ATOM      3  N   UNL     1     -23.254  12.059 -14.630  1.00  0.00    -0.331 N 
ATOM      4  C   UNL     1     -22.317  11.288 -15.449  1.00  0.00    +0.150 C 
ATOM      5  C   UNL     1     -23.750  13.294 -15.239  1.00  0.00    +0.219 C 
ATOM      6  C   UNL     1     -21.190  12.200 -15.979  1.00  0.00    +0.135 C 
ATOM      7  C   UNL     1     -22.874  13.991 -16.296  1.00  0.00    +0.242 C 
ATOM      8  N   UNL     1     -21.773  13.289 -16.774  1.00  0.00    -0.332 N 
ATOM      9  C   UNL     1     -20.111  11.410 -16.712  1.00  0.00    -0.020 A 
ATOM     10  O   UNL     1     -23.203  15.088 -16.749  1.00  0.00    -0.273 OA
ATOM     11  C   UNL     1     -20.928  13.902 -17.789  1.00  0.00    +0.125 C 
ATOM     12  C   UNL     1     -19.746  11.719 -18.038  1.00  0.00    -0.041 A 
ATOM     13  C   UNL     1     -19.420  10.378 -16.051  1.00  0.00    +0.006 A 
ATOM     14  C   UNL     1     -20.421  12.851 -18.769  1.00  0.00    +0.057 C 
ATOM     15  C   UNL     1     -18.769  10.958 -18.695  1.00  0.00    +0.004 A 
ATOM     16  C   UNL     1     -18.436   9.638 -16.707  1.00  0.00    +0.000 A 
ATOM     17  C   UNL     1     -18.118   9.920 -18.031  1.00  0.00    +0.000 A 
ENDBRANCH   2   3
BRANCH   2  18
ATOM     18  C   UNL     1     -23.282  10.914 -12.396  1.00  0.00    +0.078 C 
ATOM     19  C   UNL     1     -21.947  11.638 -12.156  1.00  0.00    +0.013 C 
ATOM     20  C   UNL     1     -24.145  10.975 -11.123  1.00  0.00    +0.013 C 
ATOM     21  C   UNL     1     -21.205  11.063 -10.951  1.00  0.00    +0.001 C 
ATOM     22  C   UNL     1     -23.409  10.393  -9.918  1.00  0.00    +0.001 C 
ATOM     23  C   UNL     1     -22.069  11.085  -9.693  1.00  0.00    +0.000 C 
ENDBRANCH   2  18
TORSDOF 2
ENDMDL
MODEL 9
REMARK VINA RESULT:    -7.664      1.983      2.857
REMARK INTER + INTRA:          -8.878
REMARK INTER:                  -8.529
REMARK INTRA:                  -0.349
REMARK UNBOUND:                -0.318
REMARK SMILES O=C(C1CCCCC1)N1CC(=O)N2CCc3ccccc3[C@@H]2C1
REMARK SMILES IDX 1 1 2 2 9 3 23 4 10 5 22 6 11 7 13 8 21 9 12 10 14 11 16 12
REMARK SMILES IDX 20 13 15 14 17 15 19 16 18 17 3 18 4 19 8 20 5 21 7 22 6 23
REMARK H PARENT
ROOT
ATOM      1  O   UNL     1     -21.073   7.757 -12.593  1.00  0.00    -0.275 OA
ATOM      2  C   UNL     1     -21.411   8.868 -13.006  1.00  0.00    +0.226 C 
ENDROOT
BRANCH   2   3
ATOM      3  N   UNL     1     -21.137   9.259 -14.313  1.00  0.00    -0.331 N 
ATOM      4  C   UNL     1     -20.947  10.643 -14.751  1.00  0.00    +0.150 C 
ATOM      5  C   UNL     1     -20.550   8.239 -15.184  1.00  0.00    +0.219 C 
ATOM      6  C   UNL     1     -21.355  10.799 -16.231  1.00  0.00    +0.135 C 
ATOM      7  C   UNL     1     -20.362   8.572 -16.675  1.00  0.00    +0.242 C 
ATOM      8  N   UNL     1     -20.547   9.895 -17.061  1.00  0.00    -0.332 N 
ATOM      9  C   UNL     1     -21.314  12.254 -16.686  1.00  0.00    -0.020 A 
ATOM     10  O   UNL     1     -19.977   7.704 -17.461  1.00  0.00    -0.273 OA
ATOM     11  C   UNL     1     -20.361  10.258 -18.458  1.00  0.00    +0.125 C 
ATOM     12  C   UNL     1     -20.547  12.657 -17.797  1.00  0.00    -0.041 A 
ATOM     13  C   UNL     1     -22.091  13.222 -16.023  1.00  0.00    +0.006 A 
ATOM     14  C   UNL     1     -19.741  11.646 -18.571  1.00  0.00    +0.057 C 
ATOM     15  C   UNL     1     -20.509  14.007 -18.175  1.00  0.00    +0.004 A 
ATOM     16  C   UNL     1     -22.061  14.560 -16.417  1.00  0.00    +0.000 A 
ATOM     17  C   UNL     1     -21.262  14.954 -17.486  1.00  0.00    +0.000 A 
ENDBRANCH   2   3
BRANCH   2  18
ATOM     18  C   UNL     1     -22.193   9.832 -12.109  1.00  0.00    +0.078 C 
ATOM     19  C   UNL     1     -23.289   9.074 -11.343  1.00  0.00    +0.013 C 
ATOM     20  C   UNL     1     -21.259  10.544 -11.114  1.00  0.00    +0.013 C 
ATOM     21  C   UNL     1     -24.067  10.000 -10.411  1.00  0.00    +0.001 C 
ATOM     22  C   UNL     1     -22.032  11.477 -10.186  1.00  0.00    +0.001 C 
ATOM     23  C   UNL     1     -23.142  10.737  -9.447  1.00  0.00    +0.000 C 
ENDBRANCH   2  18
TORSDOF 2
ENDMDL
