MODEL 1
REMARK VINA RESULT:    -8.501      0.000      0.000
REMARK INTER + INTRA:          -9.773
REMARK INTER:                  -9.495
REMARK INTRA:                  -0.278
REMARK UNBOUND:                -0.278
REMARK SMILES O=C(C1CCCCC1)N1CC(=O)N2CCc3ccccc3[C@@H]2C1
REMARK SMILES IDX 1 1 2 2 9 3 23 4 10 5 22 6 11 7 13 8 21 9 12 10 14 11 16 12
REMARK SMILES IDX 20 13 15 14 17 15 19 16 18 17 3 18 4 19 8 20 5 21 7 22 6 23
REMARK H PARENT
ROOT
ATOM      1  O   UNL     1      18.654  70.863  17.116  1.00  0.00    -0.275 OA
ATOM      2  C   UNL     1      18.158  69.752  16.918  1.00  0.00    +0.226 C 
ENDROOT
BRANCH   2   3
ATOM      3  N   UNL     1      17.133  69.582  15.993  1.00  0.00    -0.331 N 
ATOM      4  C   UNL     1      15.763  70.070  16.163  1.00  0.00    +0.150 C 
ATOM      5  C   UNL     1      17.543  69.332  14.610  1.00  0.00    +0.219 C 
ATOM      6  C   UNL     1      14.773  69.175  15.388  1.00  0.00    +0.135 C 
ATOM      7  C   UNL     1      16.454  68.993  13.575  1.00  0.00    +0.242 C 
ATOM      8  N   UNL     1      15.130  69.168  13.962  1.00  0.00    -0.332 N 
ATOM      9  C   UNL     1      13.322  69.557  15.658  1.00  0.00    -0.020 A 
ATOM     10  O   UNL     1      16.768  68.667  12.429  1.00  0.00    -0.273 OA
ATOM     11  C   UNL     1      14.069  68.878  13.009  1.00  0.00    +0.125 C 
ATOM     12  C   UNL     1      12.440  69.883  14.609  1.00  0.00    -0.041 A 
ATOM     13  C   UNL     1      12.822  69.544  16.973  1.00  0.00    +0.006 A 
ATOM     14  C   UNL     1      12.916  69.859  13.179  1.00  0.00    +0.057 C 
ATOM     15  C   UNL     1      11.118  70.257  14.891  1.00  0.00    +0.004 A 
ATOM     16  C   UNL     1      11.500  69.900  17.243  1.00  0.00    +0.000 A 
ATOM     17  C   UNL     1      10.651  70.267  16.203  1.00  0.00    +0.000 A 
ENDBRANCH   2   3
BRANCH   2  18
ATOM     18  C   UNL     1      18.695  68.514  17.642  1.00  0.00    +0.078 C 
ATOM     19  C   UNL     1      19.964  67.999  16.945  1.00  0.00    +0.013 C 
ATOM     20  C   UNL     1      19.000  68.826  19.118  1.00  0.00    +0.013 C 
ATOM     21  C   UNL     1      20.547  66.784  17.663  1.00  0.00    +0.001 C 
ATOM     22  C   UNL     1      19.575  67.610  19.842  1.00  0.00    +0.001 C 
ATOM     23  C   UNL     1      20.817  67.075  19.136  1.00  0.00    +0.000 C 
ENDBRANCH   2  18
TORSDOF 2
ENDMDL
MODEL 2
REMARK VINA RESULT:    -8.331      4.133      6.568
REMARK INTER + INTRA:          -9.583
REMARK INTER:                  -9.249
REMARK INTRA:                  -0.334
REMARK UNBOUND:                -0.278
REMARK SMILES O=C(C1CCCCC1)N1CC(=O)N2CCc3ccccc3[C@@H]2C1
REMARK SMILES IDX 1 1 2 2 9 3 23 4 10 5 22 6 11 7 13 8 21 9 12 10 14 11 16 12
REMARK SMILES IDX 20 13 15 14 17 15 19 16 18 17 3 18 4 19 8 20 5 21 7 22 6 23
REMARK H PARENT
ROOT
ATOM      1  O   UNL     1      11.707  68.100  13.254  1.00  0.00    -0.275 OA
ATOM      2  C   UNL     1      12.255  68.998  13.895  1.00  0.00    +0.226 C 
ENDROOT
BRANCH   2   3
ATOM      3  N   UNL     1      11.606  69.615  14.960  1.00  0.00    -0.331 N 
ATOM      4  C   UNL     1      12.184  70.668  15.797  1.00  0.00    +0.150 C 
ATOM      5  C   UNL     1      10.143  69.554  14.949  1.00  0.00    +0.219 C 
ATOM      6  C   UNL     1      11.566  70.631  17.210  1.00  0.00    +0.135 C 
ATOM      7  C   UNL     1       9.380  70.091  16.174  1.00  0.00    +0.242 C 
ATOM      8  N   UNL     1      10.110  70.808  17.115  1.00  0.00    -0.332 N 
ATOM      9  C   UNL     1      12.246  71.614  18.159  1.00  0.00    -0.020 A 
ATOM     10  O   UNL     1       8.158  69.956  16.252  1.00  0.00    -0.273 OA
ATOM     11  C   UNL     1       9.426  71.351  18.280  1.00  0.00    +0.125 C 
ATOM     12  C   UNL     1      11.511  72.597  18.850  1.00  0.00    -0.041 A 
ATOM     13  C   UNL     1      13.629  71.521  18.397  1.00  0.00    +0.006 A 
ATOM     14  C   UNL     1      10.018  72.701  18.666  1.00  0.00    +0.057 C 
ATOM     15  C   UNL     1      12.168  73.503  19.694  1.00  0.00    +0.004 A 
ATOM     16  C   UNL     1      14.272  72.415  19.254  1.00  0.00    +0.000 A 
ATOM     17  C   UNL     1      13.544  73.413  19.894  1.00  0.00    +0.000 A 
ENDBRANCH   2   3
BRANCH   2  18
ATOM     18  C   UNL     1      13.691  69.426  13.575  1.00  0.00    +0.078 C 
ATOM     19  C   UNL     1      14.690  68.542  14.339  1.00  0.00    +0.013 C 
ATOM     20  C   UNL     1      13.969  69.341  12.064  1.00  0.00    +0.013 C 
ATOM     21  C   UNL     1      16.134  68.919  14.016  1.00  0.00    +0.001 C 
ATOM     22  C   UNL     1      15.410  69.725  11.736  1.00  0.00    +0.001 C 
ATOM     23  C   UNL     1      16.407  68.873  12.515  1.00  0.00    +0.000 C 
ENDBRANCH   2  18
TORSDOF 2
ENDMDL
MODEL 3
REMARK VINA RESULT:    -8.262      3.192      6.801
REMARK INTER + INTRA:          -9.506
REMARK INTER:                  -9.126
REMARK INTRA:                  -0.380
REMARK UNBOUND:                -0.278
REMARK SMILES O=C(C1CCCCC1)N1CC(=O)N2CCc3ccccc3[C@@H]2C1
REMARK SMILES IDX 1 1 2 2 9 3 23 4 10 5 22 6 11 7 13 8 21 9 12 10 14 11 16 12
REMARK SMILES IDX 20 13 15 14 17 15 19 16 18 17 3 18 4 19 8 20 5 21 7 22 6 23
REMARK H PARENT
ROOT
ATOM      1  O   UNL     1      13.601  73.482  19.967  1.00  0.00    -0.275 OA
ATOM      2  C   UNL     1      13.606  72.527  19.188  1.00  0.00    +0.226 C 
ENDROOT
BRANCH   2   3
ATOM      3  N   UNL     1      14.800  72.028  18.678  1.00  0.00    -0.331 N 
ATOM      4  C   UNL     1      14.982  71.517  17.318  1.00  0.00    +0.150 C 
ATOM      5  C   UNL     1      16.025  72.462  19.354  1.00  0.00    +0.219 C 
ATOM      6  C   UNL     1      16.102  70.456  17.287  1.00  0.00    +0.135 C 
ATOM      7  C   UNL     1      17.360  71.827  18.925  1.00  0.00    +0.242 C 
ATOM      8  N   UNL     1      17.356  71.051  17.771  1.00  0.00    -0.332 N 
ATOM      9  C   UNL     1      16.223  69.791  15.920  1.00  0.00    -0.020 A 
ATOM     10  O   UNL     1      18.395  72.082  19.543  1.00  0.00    -0.273 OA
ATOM     11  C   UNL     1      18.601  70.448  17.317  1.00  0.00    +0.125 C 
ATOM     12  C   UNL     1      17.441  69.783  15.211  1.00  0.00    -0.041 A 
ATOM     13  C   UNL     1      15.118  69.124  15.360  1.00  0.00    +0.006 A 
ATOM     14  C   UNL     1      18.666  70.438  15.795  1.00  0.00    +0.057 C 
ATOM     15  C   UNL     1      17.514  69.185  13.944  1.00  0.00    +0.004 A 
ATOM     16  C   UNL     1      15.205  68.516  14.107  1.00  0.00    +0.000 A 
ATOM     17  C   UNL     1      16.399  68.556  13.394  1.00  0.00    +0.000 A 
ENDBRANCH   2   3
BRANCH   2  18
ATOM     18  C   UNL     1      12.302  71.825  18.801  1.00  0.00    +0.078 C 
ATOM     19  C   UNL     1      12.175  70.489  19.551  1.00  0.00    +0.013 C 
ATOM     20  C   UNL     1      11.083  72.713  19.108  1.00  0.00    +0.013 C 
ATOM     21  C   UNL     1      10.867  69.777  19.215  1.00  0.00    +0.001 C 
ATOM     22  C   UNL     1       9.773  72.008  18.765  1.00  0.00    +0.001 C 
ATOM     23  C   UNL     1       9.656  70.666  19.481  1.00  0.00    +0.000 C 
ENDBRANCH   2  18
TORSDOF 2
ENDMDL
MODEL 4
REMARK VINA RESULT:    -8.193      3.875      6.917
REMARK INTER + INTRA:          -9.429
REMARK INTER:                  -9.059
REMARK INTRA:                  -0.370
REMARK UNBOUND:                -0.278
REMARK SMILES O=C(C1CCCCC1)N1CC(=O)N2CCc3ccccc3[C@@H]2C1
REMARK SMILES IDX 1 1 2 2 9 3 23 4 10 5 22 6 11 7 13 8 21 9 12 10 14 11 16 12
REMARK SMILES IDX 20 13 15 14 17 15 19 16 18 17 3 18 4 19 8 20 5 21 7 22 6 23
REMARK H PARENT
ROOT
ATOM      1  O   UNL     1       8.944  71.752  17.973  1.00  0.00    -0.275 OA
ATOM      2  C   UNL     1      10.167  71.629  17.881  1.00  0.00    +0.226 C 
ENDROOT
BRANCH   2   3
ATOM      3  N   UNL     1      10.757  71.236  16.684  1.00  0.00    -0.331 N 
ATOM      4  C   UNL     1      11.993  70.458  16.576  1.00  0.00    +0.150 C 
ATOM      5  C   UNL     1       9.877  71.181  15.515  1.00  0.00    +0.219 C 
ATOM      6  C   UNL     1      12.718  70.782  15.253  1.00  0.00    +0.135 C 
ATOM      7  C   UNL     1      10.507  70.893  14.140  1.00  0.00    +0.242 C 
ATOM      8  N   UNL     1      11.833  70.478  14.120  1.00  0.00    -0.332 N 
ATOM      9  C   UNL     1      14.084  70.107  15.168  1.00  0.00    -0.020 A 
ATOM     10  O   UNL     1       9.819  70.949  13.119  1.00  0.00    -0.273 OA
ATOM     11  C   UNL     1      12.463  70.176  12.843  1.00  0.00    +0.125 C 
ATOM     12  C   UNL     1      14.420  69.263  14.092  1.00  0.00    -0.041 A 
ATOM     13  C   UNL     1      15.057  70.359  16.152  1.00  0.00    +0.006 A 
ATOM     14  C   UNL     1      13.428  69.005  12.987  1.00  0.00    +0.057 C 
ATOM     15  C   UNL     1      15.674  68.635  14.055  1.00  0.00    +0.004 A 
ATOM     16  C   UNL     1      16.309  69.744  16.097  1.00  0.00    +0.000 A 
ATOM     17  C   UNL     1      16.614  68.875  15.055  1.00  0.00    +0.000 A 
ENDBRANCH   2   3
BRANCH   2  18
ATOM     18  C   UNL     1      11.079  71.961  19.066  1.00  0.00    +0.078 C 
ATOM     19  C   UNL     1      11.799  73.297  18.824  1.00  0.00    +0.013 C 
ATOM     20  C   UNL     1      10.278  72.029  20.378  1.00  0.00    +0.013 C 
ATOM     21  C   UNL     1      12.691  73.676  20.003  1.00  0.00    +0.001 C 
ATOM     22  C   UNL     1      11.169  72.400  21.561  1.00  0.00    +0.001 C 
ATOM     23  C   UNL     1      11.911  73.710  21.314  1.00  0.00    +0.000 C 
ENDBRANCH   2  18
TORSDOF 2
ENDMDL
MODEL 5
REMARK VINA RESULT:    -8.045      3.150      7.436
REMARK INTER + INTRA:          -9.263
REMARK INTER:                  -8.937
REMARK INTRA:                  -0.326
REMARK UNBOUND:                -0.278
REMARK SMILES O=C(C1CCCCC1)N1CC(=O)N2CCc3ccccc3[C@@H]2C1
REMARK SMILES IDX 1 1 2 2 9 3 23 4 10 5 22 6 11 7 13 8 21 9 12 10 14 11 16 12
REMARK SMILES IDX 20 13 15 14 17 15 19 16 18 17 3 18 4 19 8 20 5 21 7 22 6 23
REMARK H PARENT
ROOT
ATOM      1  O   UNL     1      11.860  73.426  18.495  1.00  0.00    -0.275 OA
ATOM      2  C   UNL     1      12.124  72.312  18.039  1.00  0.00    +0.226 C 
ENDROOT
BRANCH   2   3
ATOM      3  N   UNL     1      13.440  71.871  17.946  1.00  0.00    -0.331 N 
ATOM      4  C   UNL     1      14.088  71.421  16.712  1.00  0.00    +0.150 C 
ATOM      5  C   UNL     1      14.349  72.318  19.004  1.00  0.00    +0.219 C 
ATOM      6  C   UNL     1      15.199  70.399  17.030  1.00  0.00    +0.135 C 
ATOM      7  C   UNL     1      15.778  71.744  19.030  1.00  0.00    +0.242 C 
ATOM      8  N   UNL     1      16.192  71.015  17.922  1.00  0.00    -0.332 N 
ATOM      9  C   UNL     1      15.798  69.792  15.766  1.00  0.00    -0.020 A 
ATOM     10  O   UNL     1      16.535  72.008  19.966  1.00  0.00    -0.273 OA
ATOM     11  C   UNL     1      17.542  70.470  17.896  1.00  0.00    +0.125 C 
ATOM     12  C   UNL     1      17.182  69.851  15.506  1.00  0.00    -0.041 A 
ATOM     13  C   UNL     1      14.973  69.112  14.851  1.00  0.00    +0.006 A 
ATOM     14  C   UNL     1      18.112  70.522  16.483  1.00  0.00    +0.057 C 
ATOM     15  C   UNL     1      17.699  69.306  14.321  1.00  0.00    +0.004 A 
ATOM     16  C   UNL     1      15.500  68.557  13.684  1.00  0.00    +0.000 A 
ATOM     17  C   UNL     1      16.861  68.664  13.414  1.00  0.00    +0.000 A 
ENDBRANCH   2   3
BRANCH   2  18
ATOM     18  C   UNL     1      11.007  71.355  17.613  1.00  0.00    +0.078 C 
ATOM     19  C   UNL     1       9.851  71.404  18.625  1.00  0.00    +0.013 C 
ATOM     20  C   UNL     1      10.485  71.704  16.208  1.00  0.00    +0.013 C 
ATOM     21  C   UNL     1       8.703  70.486  18.212  1.00  0.00    +0.001 C 
ATOM     22  C   UNL     1       9.342  70.783  15.788  1.00  0.00    +0.001 C 
ATOM     23  C   UNL     1       8.205  70.803  16.805  1.00  0.00    +0.000 C 
ENDBRANCH   2  18
TORSDOF 2
ENDMDL
MODEL 6
REMARK VINA RESULT:    -8.017      1.971      6.865
REMARK INTER + INTRA:          -9.232
REMARK INTER:                  -8.895
REMARK INTRA:                  -0.337
REMARK UNBOUND:                -0.278
REMARK SMILES O=C(C1CCCCC1)N1CC(=O)N2CCc3ccccc3[C@@H]2C1
REMARK SMILES IDX 1 1 2 2 9 3 23 4 10 5 22 6 11 7 13 8 21 9 12 10 14 11 16 12
REMARK SMILES IDX 20 13 15 14 17 15 19 16 18 17 3 18 4 19 8 20 5 21 7 22 6 23
REMARK H PARENT
ROOT
ATOM      1  O   UNL     1      11.942  70.180  12.816  1.00  0.00    -0.275 OA
ATOM      2  C   UNL     1      12.321  69.970  13.970  1.00  0.00    +0.226 C 
ENDROOT
BRANCH   2   3
ATOM      3  N   UNL     1      13.666  69.754  14.252  1.00  0.00    -0.331 N 
ATOM      4  C   UNL     1      14.228  69.614  15.596  1.00  0.00    +0.150 C 
ATOM      5  C   UNL     1      14.469  69.174  13.173  1.00  0.00    +0.219 C 
ATOM      6  C   UNL     1      15.699  70.079  15.615  1.00  0.00    +0.135 C 
ATOM      7  C   UNL     1      15.990  69.049  13.380  1.00  0.00    +0.242 C 
ATOM      8  N   UNL     1      16.480  69.281  14.660  1.00  0.00    -0.332 N 
ATOM      9  C   UNL     1      16.278  70.092  17.026  1.00  0.00    -0.020 A 
ATOM     10  O   UNL     1      16.712  68.672  12.456  1.00  0.00    -0.273 OA
ATOM     11  C   UNL     1      17.909  69.155  14.905  1.00  0.00    +0.125 C 
ATOM     12  C   UNL     1      17.448  69.376  17.347  1.00  0.00    -0.041 A 
ATOM     13  C   UNL     1      15.671  70.867  18.031  1.00  0.00    +0.006 A 
ATOM     14  C   UNL     1      18.164  68.574  16.291  1.00  0.00    +0.057 C 
ATOM     15  C   UNL     1      17.942  69.385  18.660  1.00  0.00    +0.004 A 
ATOM     16  C   UNL     1      16.179  70.885  19.330  1.00  0.00    +0.000 A 
ATOM     17  C   UNL     1      17.308  70.136  19.648  1.00  0.00    +0.000 A 
ENDBRANCH   2   3
BRANCH   2  18
ATOM     18  C   UNL     1      11.330  69.997  15.137  1.00  0.00    +0.078 C 
ATOM     19  C   UNL     1      11.108  71.443  15.611  1.00  0.00    +0.013 C 
ATOM     20  C   UNL     1       9.985  69.367  14.735  1.00  0.00    +0.013 C 
ATOM     21  C   UNL     1      10.097  71.510  16.753  1.00  0.00    +0.001 C 
ATOM     22  C   UNL     1       8.974  69.426  15.878  1.00  0.00    +0.001 C 
ATOM     23  C   UNL     1       8.773  70.854  16.375  1.00  0.00    +0.000 C 
ENDBRANCH   2  18
TORSDOF 2
ENDMDL
MODEL 7
REMARK VINA RESULT:    -7.805      1.433      2.401
REMARK INTER + INTRA:          -8.995
REMARK INTER:                  -8.627
REMARK INTRA:                  -0.368
REMARK UNBOUND:                -0.278
REMARK SMILES O=C(C1CCCCC1)N1CC(=O)N2CCc3ccccc3[C@@H]2C1
REMARK SMILES IDX 1 1 2 2 9 3 23 4 10 5 22 6 11 7 13 8 21 9 12 10 14 11 16 12
REMARK SMILES IDX 20 13 15 14 17 15 19 16 18 17 3 18 4 19 8 20 5 21 7 22 6 23
REMARK H PARENT
ROOT
ATOM      1  O   UNL     1      17.908  69.235  14.257  1.00  0.00    -0.275 OA
ATOM      2  C   UNL     1      17.125  69.314  15.205  1.00  0.00    +0.226 C 
ENDROOT
BRANCH   2   3
ATOM      3  N   UNL     1      15.750  69.323  14.998  1.00  0.00    -0.331 N 
ATOM      4  C   UNL     1      14.766  69.872  15.932  1.00  0.00    +0.150 C 
ATOM      5  C   UNL     1      15.304  69.218  13.607  1.00  0.00    +0.219 C 
ATOM      6  C   UNL     1      13.414  69.143  15.780  1.00  0.00    +0.135 C 
ATOM      7  C   UNL     1      13.795  69.077  13.332  1.00  0.00    +0.242 C 
ATOM      8  N   UNL     1      12.930  69.287  14.400  1.00  0.00    -0.332 N 
ATOM      9  C   UNL     1      12.404  69.581  16.836  1.00  0.00    -0.020 A 
ATOM     10  O   UNL     1      13.390  68.874  12.186  1.00  0.00    -0.273 OA
ATOM     11  C   UNL     1      11.495  69.183  14.181  1.00  0.00    +0.125 C 
ATOM     12  C   UNL     1      11.139  70.087  16.479  1.00  0.00    -0.041 A 
ATOM     13  C   UNL     1      12.707  69.439  18.203  1.00  0.00    +0.006 A 
ATOM     14  C   UNL     1      10.750  70.207  15.028  1.00  0.00    +0.057 C 
ATOM     15  C   UNL     1      10.243  70.506  17.472  1.00  0.00    +0.004 A 
ATOM     16  C   UNL     1      11.802  69.842  19.185  1.00  0.00    +0.000 A 
ATOM     17  C   UNL     1      10.574  70.385  18.820  1.00  0.00    +0.000 A 
ENDBRANCH   2   3
BRANCH   2  18
ATOM     18  C   UNL     1      17.642  69.348  16.646  1.00  0.00    +0.078 C 
ATOM     19  C   UNL     1      18.674  68.230  16.867  1.00  0.00    +0.013 C 
ATOM     20  C   UNL     1      18.273  70.713  16.975  1.00  0.00    +0.013 C 
ATOM     21  C   UNL     1      19.237  68.257  18.286  1.00  0.00    +0.001 C 
ATOM     22  C   UNL     1      18.830  70.746  18.396  1.00  0.00    +0.001 C 
ATOM     23  C   UNL     1      19.831  69.619  18.632  1.00  0.00    +0.000 C 
ENDBRANCH   2  18
TORSDOF 2
ENDMDL
MODEL 8
REMARK VINA RESULT:    -7.675      2.413      4.327
REMARK INTER + INTRA:          -8.850
REMARK INTER:                  -8.517
REMARK INTRA:                  -0.334
REMARK UNBOUND:                -0.278
REMARK SMILES O=C(C1CCCCC1)N1CC(=O)N2CCc3ccccc3[C@@H]2C1
REMARK SMILES IDX 1 1 2 2 9 3 23 4 10 5 22 6 11 7 13 8 21 9 12 10 14 11 16 12
REMARK SMILES IDX 20 13 15 14 17 15 19 16 18 17 3 18 4 19 8 20 5 21 7 22 6 23
REMARK H PARENT
ROOT
ATOM      1  O   UNL     1      21.002  67.779  16.938  1.00  0.00    -0.275 OA
ATOM      2  C   UNL     1      20.676  68.540  17.850  1.00  0.00    +0.226 C 
ENDROOT
BRANCH   2   3
ATOM      3  N   UNL     1      19.473  69.237  17.804  1.00  0.00    -0.331 N 
ATOM      4  C   UNL     1      18.289  68.816  17.052  1.00  0.00    +0.150 C 
ATOM      5  C   UNL     1      19.216  70.161  18.911  1.00  0.00    +0.219 C 
ATOM      6  C   UNL     1      17.450  70.043  16.638  1.00  0.00    +0.135 C 
ATOM      7  C   UNL     1      17.971  71.063  18.836  1.00  0.00    +0.242 C 
ATOM      8  N   UNL     1      17.043  70.787  17.838  1.00  0.00    -0.332 N 
ATOM      9  C   UNL     1      16.289  69.662  15.725  1.00  0.00    -0.020 A 
ATOM     10  O   UNL     1      17.781  71.930  19.691  1.00  0.00    -0.273 OA
ATOM     11  C   UNL     1      15.841  71.603  17.743  1.00  0.00    +0.125 C 
ATOM     12  C   UNL     1      14.959  69.998  16.048  1.00  0.00    -0.041 A 
ATOM     13  C   UNL     1      16.536  69.002  14.508  1.00  0.00    +0.006 A 
ATOM     14  C   UNL     1      14.651  70.752  17.316  1.00  0.00    +0.057 C 
ATOM     15  C   UNL     1      13.910  69.611  15.202  1.00  0.00    +0.004 A 
ATOM     16  C   UNL     1      15.488  68.637  13.663  1.00  0.00    +0.000 A 
ATOM     17  C   UNL     1      14.174  68.931  14.015  1.00  0.00    +0.000 A 
ENDBRANCH   2   3
BRANCH   2  18
ATOM     18  C   UNL     1      21.560  68.701  19.090  1.00  0.00    +0.078 C 
ATOM     19  C   UNL     1      21.822  67.331  19.736  1.00  0.00    +0.013 C 
ATOM     20  C   UNL     1      22.898  69.373  18.732  1.00  0.00    +0.013 C 
ATOM     21  C   UNL     1      22.731  67.450  20.957  1.00  0.00    +0.001 C 
ATOM     22  C   UNL     1      23.806  69.500  19.953  1.00  0.00    +0.001 C 
ATOM     23  C   UNL     1      24.044  68.148  20.618  1.00  0.00    +0.000 C 
ENDBRANCH   2  18
TORSDOF 2
ENDMDL
MODEL 9
REMARK VINA RESULT:    -7.527      3.879      5.677
REMARK INTER + INTRA:          -8.684
REMARK INTER:                  -8.313
REMARK INTRA:                  -0.371
REMARK UNBOUND:                -0.278
REMARK SMILES O=C(C1CCCCC1)N1CC(=O)N2CCc3ccccc3[C@@H]2C1
REMARK SMILES IDX 1 1 2 2 9 3 23 4 10 5 22 6 11 7 13 8 21 9 12 10 14 11 16 12
REMARK SMILES IDX 20 13 15 14 17 15 19 16 18 17 3 18 4 19 8 20 5 21 7 22 6 23
REMARK H PARENT
ROOT
ATOM      1  O   UNL     1      12.610  69.709  20.982  1.00  0.00    -0.275 OA
ATOM      2  C   UNL     1      13.401  70.225  20.191  1.00  0.00    +0.226 C 
ENDROOT
BRANCH   2   3
ATOM      3  N   UNL     1      13.219  70.104  18.817  1.00  0.00    -0.331 N 
ATOM      4  C   UNL     1      14.201  69.541  17.889  1.00  0.00    +0.150 C 
ATOM      5  C   UNL     1      11.833  70.093  18.346  1.00  0.00    +0.219 C 
ATOM      6  C   UNL     1      14.031  70.160  16.486  1.00  0.00    +0.135 C 
ATOM      7  C   UNL     1      11.577  70.108  16.828  1.00  0.00    +0.242 C 
ATOM      8  N   UNL     1      12.671  69.900  15.995  1.00  0.00    -0.332 N 
ATOM      9  C   UNL     1      15.129  69.714  15.525  1.00  0.00    -0.020 A 
ATOM     10  O   UNL     1      10.429  70.212  16.393  1.00  0.00    -0.273 OA
ATOM     11  C   UNL     1      12.472  69.886  14.553  1.00  0.00    +0.125 C 
ATOM     12  C   UNL     1      14.825  69.097  14.296  1.00  0.00    -0.041 A 
ATOM     13  C   UNL     1      16.480  69.959  15.836  1.00  0.00    +0.006 A 
ATOM     14  C   UNL     1      13.391  68.862  13.897  1.00  0.00    +0.057 C 
ATOM     15  C   UNL     1      15.857  68.674  13.446  1.00  0.00    +0.004 A 
ATOM     16  C   UNL     1      17.500  69.551  14.975  1.00  0.00    +0.000 A 
ATOM     17  C   UNL     1      17.189  68.899  13.786  1.00  0.00    +0.000 A 
ENDBRANCH   2   3
BRANCH   2  18
ATOM     18  C   UNL     1      14.579  71.064  20.696  1.00  0.00    +0.078 C 
ATOM     19  C   UNL     1      14.572  72.447  20.025  1.00  0.00    +0.013 C 
ATOM     20  C   UNL     1      14.527  71.226  22.226  1.00  0.00    +0.013 C 
ATOM     21  C   UNL     1      15.715  73.323  20.532  1.00  0.00    +0.001 C 
ATOM     22  C   UNL     1      15.673  72.095  22.737  1.00  0.00    +0.001 C 
ATOM     23  C   UNL     1      15.691  73.458  22.051  1.00  0.00    +0.000 C 
ENDBRANCH   2  18
TORSDOF 2
ENDMDL
