MODEL 1
REMARK VINA RESULT:    -9.629      0.000      0.000
REMARK INTER + INTRA:         -11.103
REMARK INTER:                 -10.755
REMARK INTRA:                  -0.348
REMARK UNBOUND:                -0.348
REMARK SMILES O=C(C1CCCCC1)N1CC(=O)N2CCc3ccccc3[C@@H]2C1
REMARK SMILES IDX 1 1 2 2 9 3 23 4 10 5 22 6 11 7 13 8 21 9 12 10 14 11 16 12
REMARK SMILES IDX 20 13 15 14 17 15 19 16 18 17 3 18 4 19 8 20 5 21 7 22 6 23
REMARK H PARENT
ROOT
ATOM      1  O   UNL     1     -37.835  11.868  11.104  1.00  0.00    -0.275 OA
ATOM      2  C   UNL     1     -38.428  11.087  10.357  1.00  0.00    +0.226 C 
ENDROOT
BRANCH   2   3
ATOM      3  N   UNL     1     -38.322   9.711  10.533  1.00  0.00    -0.331 N 
ATOM      4  C   UNL     1     -38.700   8.991  11.750  1.00  0.00    +0.150 C 
ATOM      5  C   UNL     1     -38.286   8.903   9.312  1.00  0.00    +0.219 C 
ATOM      6  C   UNL     1     -37.859   7.705  11.896  1.00  0.00    +0.135 C 
ATOM      7  C   UNL     1     -38.024   7.392   9.443  1.00  0.00    +0.242 C 
ATOM      8  N   UNL     1     -38.065   6.846  10.721  1.00  0.00    -0.332 N 
ATOM      9  C   UNL     1     -38.114   7.002  13.226  1.00  0.00    -0.020 A 
ATOM     10  O   UNL     1     -37.875   6.698   8.436  1.00  0.00    -0.273 OA
ATOM     11  C   UNL     1     -37.843   5.418  10.890  1.00  0.00    +0.125 C 
ATOM     12  C   UNL     1     -38.524   5.655  13.279  1.00  0.00    -0.041 A 
ATOM     13  C   UNL     1     -37.894   7.683  14.437  1.00  0.00    +0.006 A 
ATOM     14  C   UNL     1     -38.721   4.869  12.008  1.00  0.00    +0.057 C 
ATOM     15  C   UNL     1     -38.776   5.044  14.516  1.00  0.00    +0.004 A 
ATOM     16  C   UNL     1     -38.130   7.061  15.664  1.00  0.00    +0.000 A 
ATOM     17  C   UNL     1     -38.581   5.746  15.703  1.00  0.00    +0.000 A 
ENDBRANCH   2   3
BRANCH   2  18
ATOM     18  C   UNL     1     -39.343  11.609   9.246  1.00  0.00    +0.078 C 
ATOM     19  C   UNL     1     -40.813  11.534   9.690  1.00  0.00    +0.013 C 
ATOM     20  C   UNL     1     -38.986  13.058   8.869  1.00  0.00    +0.013 C 
ATOM     21  C   UNL     1     -41.753  12.080   8.618  1.00  0.00    +0.001 C 
ATOM     22  C   UNL     1     -39.919  13.604   7.791  1.00  0.00    +0.001 C 
ATOM     23  C   UNL     1     -41.381  13.502   8.212  1.00  0.00    +0.000 C 
ENDBRANCH   2  18
TORSDOF 2
ENDMDL
MODEL 2
REMARK VINA RESULT:    -9.431      3.603      7.456
REMARK INTER + INTRA:         -10.882
REMARK INTER:                 -10.627
REMARK INTRA:                  -0.256
REMARK UNBOUND:                -0.348
REMARK SMILES O=C(C1CCCCC1)N1CC(=O)N2CCc3ccccc3[C@@H]2C1
REMARK SMILES IDX 1 1 2 2 9 3 23 4 10 5 22 6 11 7 13 8 21 9 12 10 14 11 16 12
REMARK SMILES IDX 20 13 15 14 17 15 19 16 18 17 3 18 4 19 8 20 5 21 7 22 6 23
REMARK H PARENT
ROOT
ATOM      1  O   UNL     1     -37.793  10.470  10.076  1.00  0.00    -0.275 OA
ATOM      2  C   UNL     1     -39.000  10.548   9.841  1.00  0.00    +0.226 C 
ENDROOT
BRANCH   2   3
ATOM      3  N   UNL     1     -39.643  11.780   9.808  1.00  0.00    -0.331 N 
ATOM      4  C   UNL     1     -39.542  12.807  10.847  1.00  0.00    +0.150 C 
ATOM      5  C   UNL     1     -40.049  12.264   8.487  1.00  0.00    +0.219 C 
ATOM      6  C   UNL     1     -40.822  13.667  10.882  1.00  0.00    +0.135 C 
ATOM      7  C   UNL     1     -40.892  13.550   8.407  1.00  0.00    +0.242 C 
ATOM      8  N   UNL     1     -41.025  14.299   9.571  1.00  0.00    -0.332 N 
ATOM      9  C   UNL     1     -40.821  14.651  12.047  1.00  0.00    -0.020 A 
ATOM     10  O   UNL     1     -41.347  13.927   7.326  1.00  0.00    -0.273 OA
ATOM     11  C   UNL     1     -41.797  15.532   9.536  1.00  0.00    +0.125 C 
ATOM     12  C   UNL     1     -40.986  16.035  11.841  1.00  0.00    -0.041 A 
ATOM     13  C   UNL     1     -40.702  14.179  13.367  1.00  0.00    +0.006 A 
ATOM     14  C   UNL     1     -41.172  16.580  10.449  1.00  0.00    +0.057 C 
ATOM     15  C   UNL     1     -40.954  16.917  12.931  1.00  0.00    +0.004 A 
ATOM     16  C   UNL     1     -40.689  15.063  14.447  1.00  0.00    +0.000 A 
ATOM     17  C   UNL     1     -40.804  16.433  14.228  1.00  0.00    +0.000 A 
ENDBRANCH   2   3
BRANCH   2  18
ATOM     18  C   UNL     1     -39.818   9.293   9.522  1.00  0.00    +0.078 C 
ATOM     19  C   UNL     1     -39.463   8.770   8.121  1.00  0.00    +0.013 C 
ATOM     20  C   UNL     1     -39.571   8.191  10.568  1.00  0.00    +0.013 C 
ATOM     21  C   UNL     1     -40.236   7.497   7.784  1.00  0.00    +0.001 C 
ATOM     22  C   UNL     1     -40.350   6.920  10.239  1.00  0.00    +0.001 C 
ATOM     23  C   UNL     1     -40.026   6.413   8.837  1.00  0.00    +0.000 C 
ENDBRANCH   2  18
TORSDOF 2
ENDMDL
MODEL 3
REMARK VINA RESULT:    -9.288      2.392      3.481
REMARK INTER + INTRA:         -10.722
REMARK INTER:                 -10.356
REMARK INTRA:                  -0.366
REMARK UNBOUND:                -0.348
REMARK SMILES O=C(C1CCCCC1)N1CC(=O)N2CCc3ccccc3[C@@H]2C1
REMARK SMILES IDX 1 1 2 2 9 3 23 4 10 5 22 6 11 7 13 8 21 9 12 10 14 11 16 12
REMARK SMILES IDX 20 13 15 14 17 15 19 16 18 17 3 18 4 19 8 20 5 21 7 22 6 23
REMARK H PARENT
ROOT
ATOM      1  O   UNL     1     -42.104  11.619  10.269  1.00  0.00    -0.275 OA
ATOM      2  C   UNL     1     -40.910  11.904  10.386  1.00  0.00    +0.226 C 
ENDROOT
BRANCH   2   3
ATOM      3  N   UNL     1     -40.050  11.090  11.116  1.00  0.00    -0.331 N 
ATOM      4  C   UNL     1     -39.795   9.676  10.837  1.00  0.00    +0.150 C 
ATOM      5  C   UNL     1     -39.008  11.775  11.885  1.00  0.00    +0.219 C 
ATOM      6  C   UNL     1     -39.408   8.933  12.132  1.00  0.00    +0.135 C 
ATOM      7  C   UNL     1     -38.122  10.936  12.823  1.00  0.00    +0.242 C 
ATOM      8  N   UNL     1     -38.210   9.552  12.715  1.00  0.00    -0.332 N 
ATOM      9  C   UNL     1     -39.281   7.428  11.914  1.00  0.00    -0.020 A 
ATOM     10  O   UNL     1     -37.311  11.487  13.569  1.00  0.00    -0.273 OA
ATOM     11  C   UNL     1     -37.375   8.720  13.569  1.00  0.00    +0.125 C 
ATOM     12  C   UNL     1     -38.098   6.736  12.240  1.00  0.00    -0.041 A 
ATOM     13  C   UNL     1     -40.374   6.692  11.422  1.00  0.00    +0.006 A 
ATOM     14  C   UNL     1     -36.919   7.474  12.819  1.00  0.00    +0.057 C 
ATOM     15  C   UNL     1     -38.002   5.357  12.002  1.00  0.00    +0.004 A 
ATOM     16  C   UNL     1     -40.275   5.317  11.206  1.00  0.00    +0.000 A 
ATOM     17  C   UNL     1     -39.086   4.651  11.486  1.00  0.00    +0.000 A 
ENDBRANCH   2   3
BRANCH   2  18
ATOM     18  C   UNL     1     -40.327  13.133   9.685  1.00  0.00    +0.078 C 
ATOM     19  C   UNL     1     -39.798  12.749   8.293  1.00  0.00    +0.013 C 
ATOM     20  C   UNL     1     -41.380  14.247   9.552  1.00  0.00    +0.013 C 
ATOM     21  C   UNL     1     -39.239  13.960   7.550  1.00  0.00    +0.001 C 
ATOM     22  C   UNL     1     -40.822  15.463   8.817  1.00  0.00    +0.001 C 
ATOM     23  C   UNL     1     -40.266  15.083   7.448  1.00  0.00    +0.000 C 
ENDBRANCH   2  18
TORSDOF 2
ENDMDL
MODEL 4
REMARK VINA RESULT:    -9.209      2.063      2.794
REMARK INTER + INTRA:         -10.634
REMARK INTER:                 -10.395
REMARK INTRA:                  -0.239
REMARK UNBOUND:                -0.348
REMARK SMILES O=C(C1CCCCC1)N1CC(=O)N2CCc3ccccc3[C@@H]2C1
REMARK SMILES IDX 1 1 2 2 9 3 23 4 10 5 22 6 11 7 13 8 21 9 12 10 14 11 16 12
REMARK SMILES IDX 20 13 15 14 17 15 19 16 18 17 3 18 4 19 8 20 5 21 7 22 6 23
REMARK H PARENT
ROOT
ATOM      1  O   UNL     1     -40.084   8.566   8.039  1.00  0.00    -0.275 OA
ATOM      2  C   UNL     1     -39.864   9.115   9.120  1.00  0.00    +0.226 C 
ENDROOT
BRANCH   2   3
ATOM      3  N   UNL     1     -39.564   8.367  10.254  1.00  0.00    -0.331 N 
ATOM      4  C   UNL     1     -40.264   8.472  11.535  1.00  0.00    +0.150 C 
ATOM      5  C   UNL     1     -38.853   7.107  10.029  1.00  0.00    +0.219 C 
ATOM      6  C   UNL     1     -39.321   8.091  12.696  1.00  0.00    +0.135 C 
ATOM      7  C   UNL     1     -38.369   6.313  11.256  1.00  0.00    +0.242 C 
ATOM      8  N   UNL     1     -38.833   6.719  12.502  1.00  0.00    -0.332 N 
ATOM      9  C   UNL     1     -39.963   8.331  14.059  1.00  0.00    -0.020 A 
ATOM     10  O   UNL     1     -37.671   5.308  11.108  1.00  0.00    -0.273 OA
ATOM     11  C   UNL     1     -38.416   5.984  13.687  1.00  0.00    +0.125 C 
ATOM     12  C   UNL     1     -40.073   7.298  15.011  1.00  0.00    -0.041 A 
ATOM     13  C   UNL     1     -40.418   9.615  14.408  1.00  0.00    +0.006 A 
ATOM     14  C   UNL     1     -39.551   5.918  14.702  1.00  0.00    +0.057 C 
ATOM     15  C   UNL     1     -40.692   7.543  16.245  1.00  0.00    +0.004 A 
ATOM     16  C   UNL     1     -41.016   9.853  15.645  1.00  0.00    +0.000 A 
ATOM     17  C   UNL     1     -41.163   8.815  16.560  1.00  0.00    +0.000 A 
ENDBRANCH   2   3
BRANCH   2  18
ATOM     18  C   UNL     1     -39.859  10.642   9.235  1.00  0.00    +0.078 C 
ATOM     19  C   UNL     1     -39.428  11.274   7.901  1.00  0.00    +0.013 C 
ATOM     20  C   UNL     1     -41.247  11.172   9.639  1.00  0.00    +0.013 C 
ATOM     21  C   UNL     1     -39.446  12.799   7.971  1.00  0.00    +0.001 C 
ATOM     22  C   UNL     1     -41.265  12.696   9.717  1.00  0.00    +0.001 C 
ATOM     23  C   UNL     1     -40.808  13.329   8.407  1.00  0.00    +0.000 C 
ENDBRANCH   2  18
TORSDOF 2
ENDMDL
MODEL 5
REMARK VINA RESULT:    -9.170      2.518      6.392
REMARK INTER + INTRA:         -10.591
REMARK INTER:                 -10.229
REMARK INTRA:                  -0.362
REMARK UNBOUND:                -0.348
REMARK SMILES O=C(C1CCCCC1)N1CC(=O)N2CCc3ccccc3[C@@H]2C1
REMARK SMILES IDX 1 1 2 2 9 3 23 4 10 5 22 6 11 7 13 8 21 9 12 10 14 11 16 12
REMARK SMILES IDX 20 13 15 14 17 15 19 16 18 17 3 18 4 19 8 20 5 21 7 22 6 23
REMARK H PARENT
ROOT
ATOM      1  O   UNL     1     -37.993   5.841  15.433  1.00  0.00    -0.275 OA
ATOM      2  C   UNL     1     -38.491   6.773  14.799  1.00  0.00    +0.226 C 
ENDROOT
BRANCH   2   3
ATOM      3  N   UNL     1     -38.700   6.673  13.428  1.00  0.00    -0.331 N 
ATOM      4  C   UNL     1     -38.771   7.808  12.506  1.00  0.00    +0.150 C 
ATOM      5  C   UNL     1     -38.363   5.387  12.813  1.00  0.00    +0.219 C 
ATOM      6  C   UNL     1     -39.660   7.463  11.294  1.00  0.00    +0.135 C 
ATOM      7  C   UNL     1     -38.710   5.174  11.328  1.00  0.00    +0.242 C 
ATOM      8  N   UNL     1     -39.111   6.288  10.601  1.00  0.00    -0.332 N 
ATOM      9  C   UNL     1     -39.883   8.667  10.384  1.00  0.00    -0.020 A 
ATOM     10  O   UNL     1     -38.546   4.070  10.805  1.00  0.00    -0.273 OA
ATOM     11  C   UNL     1     -39.430   6.136   9.189  1.00  0.00    +0.125 C 
ATOM     12  C   UNL     1     -39.563   8.622   9.013  1.00  0.00    -0.041 A 
ATOM     13  C   UNL     1     -40.463   9.841  10.898  1.00  0.00    +0.006 A 
ATOM     14  C   UNL     1     -38.989   7.367   8.406  1.00  0.00    +0.057 C 
ATOM     15  C   UNL     1     -39.754   9.754   8.208  1.00  0.00    +0.004 A 
ATOM     16  C   UNL     1     -40.666  10.957  10.086  1.00  0.00    +0.000 A 
ATOM     17  C   UNL     1     -40.302  10.917   8.743  1.00  0.00    +0.000 A 
ENDBRANCH   2   3
BRANCH   2  18
ATOM     18  C   UNL     1     -38.949   8.048  15.512  1.00  0.00    +0.078 C 
ATOM     19  C   UNL     1     -40.186   7.758  16.378  1.00  0.00    +0.013 C 
ATOM     20  C   UNL     1     -37.823   8.627  16.388  1.00  0.00    +0.013 C 
ATOM     21  C   UNL     1     -40.649   9.003  17.131  1.00  0.00    +0.001 C 
ATOM     22  C   UNL     1     -38.280   9.877  17.136  1.00  0.00    +0.001 C 
ATOM     23  C   UNL     1     -39.527   9.604  17.973  1.00  0.00    +0.000 C 
ENDBRANCH   2  18
TORSDOF 2
ENDMDL
MODEL 6
REMARK VINA RESULT:    -8.822      3.739      7.780
REMARK INTER + INTRA:         -10.201
REMARK INTER:                  -9.828
REMARK INTRA:                  -0.373
REMARK UNBOUND:                -0.348
REMARK SMILES O=C(C1CCCCC1)N1CC(=O)N2CCc3ccccc3[C@@H]2C1
REMARK SMILES IDX 1 1 2 2 9 3 23 4 10 5 22 6 11 7 13 8 21 9 12 10 14 11 16 12
REMARK SMILES IDX 20 13 15 14 17 15 19 16 18 17 3 18 4 19 8 20 5 21 7 22 6 23
REMARK H PARENT
ROOT
ATOM      1  O   UNL     1     -39.556   9.991   8.875  1.00  0.00    -0.275 OA
ATOM      2  C   UNL     1     -39.676  10.658   9.904  1.00  0.00    +0.226 C 
ENDROOT
BRANCH   2   3
ATOM      3  N   UNL     1     -40.161  11.961   9.857  1.00  0.00    -0.331 N 
ATOM      4  C   UNL     1     -39.925  12.979  10.882  1.00  0.00    +0.150 C 
ATOM      5  C   UNL     1     -40.510  12.476   8.532  1.00  0.00    +0.219 C 
ATOM      6  C   UNL     1     -41.088  13.993  10.911  1.00  0.00    +0.135 C 
ATOM      7  C   UNL     1     -41.187  13.855   8.438  1.00  0.00    +0.242 C 
ATOM      8  N   UNL     1     -41.218  14.630   9.593  1.00  0.00    -0.332 N 
ATOM      9  C   UNL     1     -40.957  14.984  12.064  1.00  0.00    -0.020 A 
ATOM     10  O   UNL     1     -41.597  14.273   7.354  1.00  0.00    -0.273 OA
ATOM     11  C   UNL     1     -41.830  15.950   9.545  1.00  0.00    +0.125 C 
ATOM     12  C   UNL     1     -40.949  16.375  11.840  1.00  0.00    -0.041 A 
ATOM     13  C   UNL     1     -40.889  14.518  13.389  1.00  0.00    +0.006 A 
ATOM     14  C   UNL     1     -41.073  16.922  10.441  1.00  0.00    +0.057 C 
ATOM     15  C   UNL     1     -40.800  17.260  12.918  1.00  0.00    +0.004 A 
ATOM     16  C   UNL     1     -40.759  15.407  14.457  1.00  0.00    +0.000 A 
ATOM     17  C   UNL     1     -40.704  16.777  14.221  1.00  0.00    +0.000 A 
ENDBRANCH   2   3
BRANCH   2  18
ATOM     18  C   UNL     1     -39.348  10.054  11.272  1.00  0.00    +0.078 C 
ATOM     19  C   UNL     1     -40.510   9.171  11.755  1.00  0.00    +0.013 C 
ATOM     20  C   UNL     1     -38.052   9.225  11.215  1.00  0.00    +0.013 C 
ATOM     21  C   UNL     1     -40.202   8.524  13.103  1.00  0.00    +0.001 C 
ATOM     22  C   UNL     1     -37.736   8.583  12.564  1.00  0.00    +0.001 C 
ATOM     23  C   UNL     1     -38.899   7.731  13.064  1.00  0.00    +0.000 C 
ENDBRANCH   2  18
TORSDOF 2
ENDMDL
MODEL 7
REMARK VINA RESULT:    -8.622      2.192      3.625
REMARK INTER + INTRA:          -9.978
REMARK INTER:                  -9.718
REMARK INTRA:                  -0.260
REMARK UNBOUND:                -0.348
REMARK SMILES O=C(C1CCCCC1)N1CC(=O)N2CCc3ccccc3[C@@H]2C1
REMARK SMILES IDX 1 1 2 2 9 3 23 4 10 5 22 6 11 7 13 8 21 9 12 10 14 11 16 12
REMARK SMILES IDX 20 13 15 14 17 15 19 16 18 17 3 18 4 19 8 20 5 21 7 22 6 23
REMARK H PARENT
ROOT
ATOM      1  O   UNL     1     -38.072  12.392  10.484  1.00  0.00    -0.275 OA
ATOM      2  C   UNL     1     -39.231  12.071  10.751  1.00  0.00    +0.226 C 
ENDROOT
BRANCH   2   3
ATOM      3  N   UNL     1     -39.499  11.049  11.656  1.00  0.00    -0.331 N 
ATOM      4  C   UNL     1     -39.034   9.668  11.522  1.00  0.00    +0.150 C 
ATOM      5  C   UNL     1     -39.848  11.464  13.017  1.00  0.00    +0.219 C 
ATOM      6  C   UNL     1     -40.012   8.700  12.221  1.00  0.00    +0.135 C 
ATOM      7  C   UNL     1     -40.295  10.383  14.018  1.00  0.00    +0.242 C 
ATOM      8  N   UNL     1     -40.123   9.055  13.642  1.00  0.00    -0.332 N 
ATOM      9  C   UNL     1     -39.646   7.239  11.977  1.00  0.00    -0.020 A 
ATOM     10  O   UNL     1     -40.702  10.704  15.136  1.00  0.00    -0.273 OA
ATOM     11  C   UNL     1     -40.514   8.001  14.566  1.00  0.00    +0.125 C 
ATOM     12  C   UNL     1     -39.426   6.348  13.047  1.00  0.00    -0.041 A 
ATOM     13  C   UNL     1     -39.567   6.742  10.664  1.00  0.00    +0.006 A 
ATOM     14  C   UNL     1     -39.551   6.823  14.471  1.00  0.00    +0.057 C 
ATOM     15  C   UNL     1     -39.064   5.018  12.791  1.00  0.00    +0.004 A 
ATOM     16  C   UNL     1     -39.224   5.411  10.419  1.00  0.00    +0.000 A 
ATOM     17  C   UNL     1     -38.962   4.552  11.482  1.00  0.00    +0.000 A 
ENDBRANCH   2   3
BRANCH   2  18
ATOM     18  C   UNL     1     -40.414  12.825  10.136  1.00  0.00    +0.078 C 
ATOM     19  C   UNL     1     -40.587  14.190  10.821  1.00  0.00    +0.013 C 
ATOM     20  C   UNL     1     -40.218  13.021   8.622  1.00  0.00    +0.013 C 
ATOM     21  C   UNL     1     -41.738  14.985  10.208  1.00  0.00    +0.001 C 
ATOM     22  C   UNL     1     -41.372  13.808   8.005  1.00  0.00    +0.001 C 
ATOM     23  C   UNL     1     -41.569  15.151   8.701  1.00  0.00    +0.000 C 
ENDBRANCH   2  18
TORSDOF 2
ENDMDL
MODEL 8
REMARK VINA RESULT:    -8.592      1.782      6.909
REMARK INTER + INTRA:          -9.945
REMARK INTER:                  -9.633
REMARK INTRA:                  -0.312
REMARK UNBOUND:                -0.348
REMARK SMILES O=C(C1CCCCC1)N1CC(=O)N2CCc3ccccc3[C@@H]2C1
REMARK SMILES IDX 1 1 2 2 9 3 23 4 10 5 22 6 11 7 13 8 21 9 12 10 14 11 16 12
REMARK SMILES IDX 20 13 15 14 17 15 19 16 18 17 3 18 4 19 8 20 5 21 7 22 6 23
REMARK H PARENT
ROOT
ATOM      1  O   UNL     1     -36.083   8.305  12.618  1.00  0.00    -0.275 OA
ATOM      2  C   UNL     1     -37.298   8.265  12.414  1.00  0.00    +0.226 C 
ENDROOT
BRANCH   2   3
ATOM      3  N   UNL     1     -37.873   8.999  11.382  1.00  0.00    -0.331 N 
ATOM      4  C   UNL     1     -38.224  10.418  11.457  1.00  0.00    +0.150 C 
ATOM      5  C   UNL     1     -37.686   8.471  10.029  1.00  0.00    +0.219 C 
ATOM      6  C   UNL     1     -39.404  10.732  10.513  1.00  0.00    +0.135 C 
ATOM      7  C   UNL     1     -38.423   9.161   8.866  1.00  0.00    +0.242 C 
ATOM      8  N   UNL     1     -39.037  10.379   9.135  1.00  0.00    -0.332 N 
ATOM      9  C   UNL     1     -39.899  12.166  10.672  1.00  0.00    -0.020 A 
ATOM     10  O   UNL     1     -38.380   8.681   7.733  1.00  0.00    -0.273 OA
ATOM     11  C   UNL     1     -39.728  11.077   8.060  1.00  0.00    +0.125 C 
ATOM     12  C   UNL     1     -39.968  13.046   9.573  1.00  0.00    -0.041 A 
ATOM     13  C   UNL     1     -40.345  12.624  11.925  1.00  0.00    +0.006 A 
ATOM     14  C   UNL     1     -39.551  12.584   8.201  1.00  0.00    +0.057 C 
ATOM     15  C   UNL     1     -40.403  14.367   9.756  1.00  0.00    +0.004 A 
ATOM     16  C   UNL     1     -40.793  13.934  12.094  1.00  0.00    +0.000 A 
ATOM     17  C   UNL     1     -40.812  14.809  11.011  1.00  0.00    +0.000 A 
ENDBRANCH   2   3
BRANCH   2  18
ATOM     18  C   UNL     1     -38.204   7.362  13.255  1.00  0.00    +0.078 C 
ATOM     19  C   UNL     1     -37.954   5.886  12.907  1.00  0.00    +0.013 C 
ATOM     20  C   UNL     1     -37.970   7.590  14.759  1.00  0.00    +0.013 C 
ATOM     21  C   UNL     1     -38.817   4.954  13.754  1.00  0.00    +0.001 C 
ATOM     22  C   UNL     1     -38.838   6.666  15.609  1.00  0.00    +0.001 C 
ATOM     23  C   UNL     1     -38.618   5.200  15.246  1.00  0.00    +0.000 C 
ENDBRANCH   2  18
TORSDOF 2
ENDMDL
MODEL 9
REMARK VINA RESULT:    -8.582      2.698      6.429
REMARK INTER + INTRA:          -9.934
REMARK INTER:                  -9.723
REMARK INTRA:                  -0.210
REMARK UNBOUND:                -0.348
REMARK SMILES O=C(C1CCCCC1)N1CC(=O)N2CCc3ccccc3[C@@H]2C1
REMARK SMILES IDX 1 1 2 2 9 3 23 4 10 5 22 6 11 7 13 8 21 9 12 10 14 11 16 12
REMARK SMILES IDX 20 13 15 14 17 15 19 16 18 17 3 18 4 19 8 20 5 21 7 22 6 23
REMARK H PARENT
ROOT
ATOM      1  O   UNL     1     -36.897   9.083  14.816  1.00  0.00    -0.275 OA
ATOM      2  C   UNL     1     -38.041   9.448  14.538  1.00  0.00    +0.226 C 
ENDROOT
BRANCH   2   3
ATOM      3  N   UNL     1     -38.393   9.759  13.229  1.00  0.00    -0.331 N 
ATOM      4  C   UNL     1     -38.947   8.810  12.263  1.00  0.00    +0.150 C 
ATOM      5  C   UNL     1     -38.669  11.170  12.951  1.00  0.00    +0.219 C 
ATOM      6  C   UNL     1     -38.578   9.229  10.824  1.00  0.00    +0.135 C 
ATOM      7  C   UNL     1     -38.921  11.592  11.492  1.00  0.00    +0.242 C 
ATOM      8  N   UNL     1     -39.098  10.577  10.557  1.00  0.00    -0.332 N 
ATOM      9  C   UNL     1     -39.007   8.188   9.795  1.00  0.00    -0.020 A 
ATOM     10  O   UNL     1     -39.046  12.783  11.202  1.00  0.00    -0.273 OA
ATOM     11  C   UNL     1     -39.358  10.930   9.169  1.00  0.00    +0.125 C 
ATOM     12  C   UNL     1     -39.840   8.526   8.711  1.00  0.00    -0.041 A 
ATOM     13  C   UNL     1     -38.532   6.867   9.889  1.00  0.00    +0.006 A 
ATOM     14  C   UNL     1     -40.331   9.940   8.539  1.00  0.00    +0.057 C 
ATOM     15  C   UNL     1     -40.239   7.540   7.796  1.00  0.00    +0.004 A 
ATOM     16  C   UNL     1     -38.919   5.897   8.964  1.00  0.00    +0.000 A 
ATOM     17  C   UNL     1     -39.781   6.231   7.924  1.00  0.00    +0.000 A 
ENDBRANCH   2   3
BRANCH   2  18
ATOM     18  C   UNL     1     -39.125   9.517  15.618  1.00  0.00    +0.078 C 
ATOM     19  C   UNL     1     -40.147   8.387  15.416  1.00  0.00    +0.013 C 
ATOM     20  C   UNL     1     -38.511   9.419  17.026  1.00  0.00    +0.013 C 
ATOM     21  C   UNL     1     -41.225   8.404  16.498  1.00  0.00    +0.001 C 
ATOM     22  C   UNL     1     -39.585   9.445  18.110  1.00  0.00    +0.001 C 
ATOM     23  C   UNL     1     -40.621   8.346  17.898  1.00  0.00    +0.000 C 
ENDBRANCH   2  18
TORSDOF 2
ENDMDL
