MODEL 1
REMARK VINA RESULT:   -10.081      0.000      0.000
REMARK INTER + INTRA:         -11.574
REMARK INTER:                 -11.260
REMARK INTRA:                  -0.314
REMARK UNBOUND:                -0.314
REMARK SMILES O=C(C1CCCCC1)N1CC(=O)N2CCc3ccccc3[C@@H]2C1
REMARK SMILES IDX 1 1 2 2 9 3 23 4 10 5 22 6 11 7 13 8 21 9 12 10 14 11 16 12
REMARK SMILES IDX 20 13 15 14 17 15 19 16 18 17 3 18 4 19 8 20 5 21 7 22 6 23
REMARK H PARENT
ROOT
ATOM      1  O   UNL     1      19.032  65.775  44.859  1.00  0.00    -0.275 OA
ATOM      2  C   UNL     1      18.312  66.680  44.434  1.00  0.00    +0.226 C 
ENDROOT
BRANCH   2   3
ATOM      3  N   UNL     1      17.370  66.438  43.440  1.00  0.00    -0.331 N 
ATOM      4  C   UNL     1      17.679  66.242  42.023  1.00  0.00    +0.150 C 
ATOM      5  C   UNL     1      16.088  65.887  43.884  1.00  0.00    +0.219 C 
ATOM      6  C   UNL     1      16.490  66.688  41.146  1.00  0.00    +0.135 C 
ATOM      7  C   UNL     1      14.959  65.736  42.848  1.00  0.00    +0.242 C 
ATOM      8  N   UNL     1      15.294  65.915  41.510  1.00  0.00    -0.332 N 
ATOM      9  C   UNL     1      16.824  66.643  39.659  1.00  0.00    -0.020 A 
ATOM     10  O   UNL     1      13.834  65.382  43.203  1.00  0.00    -0.273 OA
ATOM     11  C   UNL     1      14.263  65.762  40.494  1.00  0.00    +0.125 C 
ATOM     12  C   UNL     1      16.042  65.901  38.751  1.00  0.00    -0.041 A 
ATOM     13  C   UNL     1      17.906  67.389  39.157  1.00  0.00    +0.006 A 
ATOM     14  C   UNL     1      14.842  65.129  39.235  1.00  0.00    +0.057 C 
ATOM     15  C   UNL     1      16.392  65.857  37.394  1.00  0.00    +0.004 A 
ATOM     16  C   UNL     1      18.235  67.354  37.801  1.00  0.00    +0.000 A 
ATOM     17  C   UNL     1      17.485  66.580  36.922  1.00  0.00    +0.000 A 
ENDBRANCH   2   3
BRANCH   2  18
ATOM     18  C   UNL     1      18.395  68.090  45.027  1.00  0.00    +0.078 C 
ATOM     19  C   UNL     1      18.306  68.027  46.560  1.00  0.00    +0.013 C 
ATOM     20  C   UNL     1      19.701  68.790  44.608  1.00  0.00    +0.013 C 
ATOM     21  C   UNL     1      18.421  69.415  47.187  1.00  0.00    +0.001 C 
ATOM     22  C   UNL     1      19.815  70.181  45.227  1.00  0.00    +0.001 C 
ATOM     23  C   UNL     1      19.695  70.130  46.747  1.00  0.00    +0.000 C 
ENDBRANCH   2  18
TORSDOF 2
ENDMDL
MODEL 2
REMARK VINA RESULT:    -9.208      1.441      6.673
REMARK INTER + INTRA:         -10.598
REMARK INTER:                 -10.328
REMARK INTRA:                  -0.271
REMARK UNBOUND:                -0.314
REMARK SMILES O=C(C1CCCCC1)N1CC(=O)N2CCc3ccccc3[C@@H]2C1
REMARK SMILES IDX 1 1 2 2 9 3 23 4 10 5 22 6 11 7 13 8 21 9 12 10 14 11 16 12
REMARK SMILES IDX 20 13 15 14 17 15 19 16 18 17 3 18 4 19 8 20 5 21 7 22 6 23
REMARK H PARENT
ROOT
ATOM      1  O   UNL     1      14.460  66.213  40.662  1.00  0.00    -0.275 OA
ATOM      2  C   UNL     1      15.676  66.156  40.852  1.00  0.00    +0.226 C 
ENDROOT
BRANCH   2   3
ATOM      3  N   UNL     1      16.191  65.938  42.126  1.00  0.00    -0.331 N 
ATOM      4  C   UNL     1      16.676  66.988  43.024  1.00  0.00    +0.150 C 
ATOM      5  C   UNL     1      15.800  64.687  42.778  1.00  0.00    +0.219 C 
ATOM      6  C   UNL     1      17.761  66.429  43.969  1.00  0.00    +0.135 C 
ATOM      7  C   UNL     1      16.455  64.328  44.124  1.00  0.00    +0.242 C 
ATOM      8  N   UNL     1      17.205  65.316  44.751  1.00  0.00    -0.332 N 
ATOM      9  C   UNL     1      18.399  67.522  44.819  1.00  0.00    -0.020 A 
ATOM     10  O   UNL     1      16.237  63.234  44.648  1.00  0.00    -0.273 OA
ATOM     11  C   UNL     1      17.826  65.027  46.036  1.00  0.00    +0.125 C 
ATOM     12  C   UNL     1      18.419  67.443  46.226  1.00  0.00    -0.041 A 
ATOM     13  C   UNL     1      19.029  68.619  44.201  1.00  0.00    +0.006 A 
ATOM     14  C   UNL     1      17.804  66.261  46.930  1.00  0.00    +0.057 C 
ATOM     15  C   UNL     1      18.990  68.477  46.981  1.00  0.00    +0.004 A 
ATOM     16  C   UNL     1      19.610  69.634  44.961  1.00  0.00    +0.000 A 
ATOM     17  C   UNL     1      19.582  69.569  46.351  1.00  0.00    +0.000 A 
ENDBRANCH   2   3
BRANCH   2  18
ATOM     18  C   UNL     1      16.657  66.269  39.682  1.00  0.00    +0.078 C 
ATOM     19  C   UNL     1      15.922  66.051  38.350  1.00  0.00    +0.013 C 
ATOM     20  C   UNL     1      17.355  67.641  39.675  1.00  0.00    +0.013 C 
ATOM     21  C   UNL     1      16.865  66.191  37.158  1.00  0.00    +0.001 C 
ATOM     22  C   UNL     1      18.305  67.781  38.488  1.00  0.00    +0.001 C 
ATOM     23  C   UNL     1      17.589  67.534  37.164  1.00  0.00    +0.000 C 
ENDBRANCH   2  18
TORSDOF 2
ENDMDL
MODEL 3
REMARK VINA RESULT:    -9.118      2.556      7.022
REMARK INTER + INTRA:         -10.498
REMARK INTER:                 -10.258
REMARK INTRA:                  -0.240
REMARK UNBOUND:                -0.314
REMARK SMILES O=C(C1CCCCC1)N1CC(=O)N2CCc3ccccc3[C@@H]2C1
REMARK SMILES IDX 1 1 2 2 9 3 23 4 10 5 22 6 11 7 13 8 21 9 12 10 14 11 16 12
REMARK SMILES IDX 20 13 15 14 17 15 19 16 18 17 3 18 4 19 8 20 5 21 7 22 6 23
REMARK H PARENT
ROOT
ATOM      1  O   UNL     1      19.300  66.966  40.498  1.00  0.00    -0.275 OA
ATOM      2  C   UNL     1      18.208  66.889  41.064  1.00  0.00    +0.226 C 
ENDROOT
BRANCH   2   3
ATOM      3  N   UNL     1      18.127  66.760  42.446  1.00  0.00    -0.331 N 
ATOM      4  C   UNL     1      18.155  65.489  43.172  1.00  0.00    +0.150 C 
ATOM      5  C   UNL     1      18.504  67.938  43.230  1.00  0.00    +0.219 C 
ATOM      6  C   UNL     1      17.378  65.611  44.500  1.00  0.00    +0.135 C 
ATOM      7  C   UNL     1      18.295  67.900  44.755  1.00  0.00    +0.242 C 
ATOM      8  N   UNL     1      17.975  66.672  45.323  1.00  0.00    -0.332 N 
ATOM      9  C   UNL     1      17.255  64.270  45.217  1.00  0.00    -0.020 A 
ATOM     10  O   UNL     1      18.494  68.908  45.434  1.00  0.00    -0.273 OA
ATOM     11  C   UNL     1      17.788  66.586  46.764  1.00  0.00    +0.125 C 
ATOM     12  C   UNL     1      17.700  64.102  46.543  1.00  0.00    -0.041 A 
ATOM     13  C   UNL     1      16.643  63.180  44.573  1.00  0.00    +0.006 A 
ATOM     14  C   UNL     1      18.314  65.257  47.293  1.00  0.00    +0.057 C 
ATOM     15  C   UNL     1      17.598  62.850  47.167  1.00  0.00    +0.004 A 
ATOM     16  C   UNL     1      16.529  61.942  45.207  1.00  0.00    +0.000 A 
ATOM     17  C   UNL     1      17.015  61.774  46.500  1.00  0.00    +0.000 A 
ENDBRANCH   2   3
BRANCH   2  18
ATOM     18  C   UNL     1      16.904  66.988  40.266  1.00  0.00    +0.078 C 
ATOM     19  C   UNL     1      17.135  66.539  38.814  1.00  0.00    +0.013 C 
ATOM     20  C   UNL     1      15.797  66.132  40.907  1.00  0.00    +0.013 C 
ATOM     21  C   UNL     1      15.845  66.593  37.998  1.00  0.00    +0.001 C 
ATOM     22  C   UNL     1      14.504  66.190  40.098  1.00  0.00    +0.001 C 
ATOM     23  C   UNL     1      14.732  65.776  38.647  1.00  0.00    +0.000 C 
ENDBRANCH   2  18
TORSDOF 2
ENDMDL
MODEL 4
REMARK VINA RESULT:    -9.020      6.011     11.161
REMARK INTER + INTRA:         -10.389
REMARK INTER:                 -10.072
REMARK INTRA:                  -0.317
REMARK UNBOUND:                -0.314
REMARK SMILES O=C(C1CCCCC1)N1CC(=O)N2CCc3ccccc3[C@@H]2C1
REMARK SMILES IDX 1 1 2 2 9 3 23 4 10 5 22 6 11 7 13 8 21 9 12 10 14 11 16 12
REMARK SMILES IDX 20 13 15 14 17 15 19 16 18 17 3 18 4 19 8 20 5 21 7 22 6 23
REMARK H PARENT
ROOT
ATOM      1  O   UNL     1      18.990  72.851  45.264  1.00  0.00    -0.275 OA
ATOM      2  C   UNL     1      19.656  72.239  46.101  1.00  0.00    +0.226 C 
ENDROOT
BRANCH   2   3
ATOM      3  N   UNL     1      20.355  72.919  47.093  1.00  0.00    -0.331 N 
ATOM      4  C   UNL     1      21.678  73.521  46.923  1.00  0.00    +0.150 C 
ATOM      5  C   UNL     1      19.554  73.466  48.190  1.00  0.00    +0.219 C 
ATOM      6  C   UNL     1      22.432  73.552  48.269  1.00  0.00    +0.135 C 
ATOM      7  C   UNL     1      20.288  74.099  49.386  1.00  0.00    +0.242 C 
ATOM      8  N   UNL     1      21.654  74.320  49.251  1.00  0.00    -0.332 N 
ATOM      9  C   UNL     1      23.871  74.032  48.110  1.00  0.00    -0.020 A 
ATOM     10  O   UNL     1      19.656  74.468  50.378  1.00  0.00    -0.273 OA
ATOM     11  C   UNL     1      22.385  74.935  50.349  1.00  0.00    +0.125 C 
ATOM     12  C   UNL     1      24.365  75.129  48.844  1.00  0.00    -0.041 A 
ATOM     13  C   UNL     1      24.751  73.349  47.251  1.00  0.00    +0.006 A 
ATOM     14  C   UNL     1      23.474  75.858  49.816  1.00  0.00    +0.057 C 
ATOM     15  C   UNL     1      25.685  75.564  48.656  1.00  0.00    +0.004 A 
ATOM     16  C   UNL     1      26.069  73.779  47.084  1.00  0.00    +0.000 A 
ATOM     17  C   UNL     1      26.532  74.892  47.778  1.00  0.00    +0.000 A 
ENDBRANCH   2   3
BRANCH   2  18
ATOM     18  C   UNL     1      19.691  70.708  46.107  1.00  0.00    +0.078 C 
ATOM     19  C   UNL     1      18.444  70.153  46.814  1.00  0.00    +0.013 C 
ATOM     20  C   UNL     1      19.771  70.150  44.675  1.00  0.00    +0.013 C 
ATOM     21  C   UNL     1      18.428  68.626  46.809  1.00  0.00    +0.001 C 
ATOM     22  C   UNL     1      19.764  68.624  44.667  1.00  0.00    +0.001 C 
ATOM     23  C   UNL     1      18.545  68.065  45.395  1.00  0.00    +0.000 C 
ENDBRANCH   2  18
TORSDOF 2
ENDMDL
MODEL 5
REMARK VINA RESULT:    -8.905      4.521      6.436
REMARK INTER + INTRA:         -10.260
REMARK INTER:                  -9.882
REMARK INTRA:                  -0.378
REMARK UNBOUND:                -0.314
REMARK SMILES O=C(C1CCCCC1)N1CC(=O)N2CCc3ccccc3[C@@H]2C1
REMARK SMILES IDX 1 1 2 2 9 3 23 4 10 5 22 6 11 7 13 8 21 9 12 10 14 11 16 12
REMARK SMILES IDX 20 13 15 14 17 15 19 16 18 17 3 18 4 19 8 20 5 21 7 22 6 23
REMARK H PARENT
ROOT
ATOM      1  O   UNL     1      13.012  71.021  46.908  1.00  0.00    -0.275 OA
ATOM      2  C   UNL     1      13.408  69.957  47.387  1.00  0.00    +0.226 C 
ENDROOT
BRANCH   2   3
ATOM      3  N   UNL     1      14.361  69.187  46.728  1.00  0.00    -0.331 N 
ATOM      4  C   UNL     1      14.218  68.659  45.370  1.00  0.00    +0.150 C 
ATOM      5  C   UNL     1      15.738  69.306  47.213  1.00  0.00    +0.219 C 
ATOM      6  C   UNL     1      15.033  67.359  45.210  1.00  0.00    +0.135 C 
ATOM      7  C   UNL     1      16.805  68.370  46.618  1.00  0.00    +0.242 C 
ATOM      8  N   UNL     1      16.449  67.628  45.497  1.00  0.00    -0.332 N 
ATOM      9  C   UNL     1      14.794  66.695  43.858  1.00  0.00    -0.020 A 
ATOM     10  O   UNL     1      17.948  68.361  47.078  1.00  0.00    -0.273 OA
ATOM     11  C   UNL     1      17.434  66.745  44.890  1.00  0.00    +0.125 C 
ATOM     12  C   UNL     1      15.860  66.398  42.986  1.00  0.00    -0.041 A 
ATOM     13  C   UNL     1      13.492  66.320  43.477  1.00  0.00    +0.006 A 
ATOM     14  C   UNL     1      17.277  66.732  43.374  1.00  0.00    +0.057 C 
ATOM     15  C   UNL     1      15.605  65.811  41.738  1.00  0.00    +0.004 A 
ATOM     16  C   UNL     1      13.250  65.720  42.241  1.00  0.00    +0.000 A 
ATOM     17  C   UNL     1      14.305  65.475  41.367  1.00  0.00    +0.000 A 
ENDBRANCH   2   3
BRANCH   2  18
ATOM     18  C   UNL     1      12.904  69.477  48.751  1.00  0.00    +0.078 C 
ATOM     19  C   UNL     1      11.714  70.336  49.210  1.00  0.00    +0.013 C 
ATOM     20  C   UNL     1      12.488  67.996  48.698  1.00  0.00    +0.013 C 
ATOM     21  C   UNL     1      11.164  69.862  50.553  1.00  0.00    +0.001 C 
ATOM     22  C   UNL     1      11.944  67.517  50.042  1.00  0.00    +0.001 C 
ATOM     23  C   UNL     1      10.784  68.385  50.518  1.00  0.00    +0.000 C 
ENDBRANCH   2  18
TORSDOF 2
ENDMDL
MODEL 6
REMARK VINA RESULT:    -8.449      7.627     10.518
REMARK INTER + INTRA:          -9.751
REMARK INTER:                  -9.416
REMARK INTRA:                  -0.335
REMARK UNBOUND:                -0.314
REMARK SMILES O=C(C1CCCCC1)N1CC(=O)N2CCc3ccccc3[C@@H]2C1
REMARK SMILES IDX 1 1 2 2 9 3 23 4 10 5 22 6 11 7 13 8 21 9 12 10 14 11 16 12
REMARK SMILES IDX 20 13 15 14 17 15 19 16 18 17 3 18 4 19 8 20 5 21 7 22 6 23
REMARK H PARENT
ROOT
ATOM      1  O   UNL     1      14.216  71.017  46.365  1.00  0.00    -0.275 OA
ATOM      2  C   UNL     1      13.869  69.965  46.905  1.00  0.00    +0.226 C 
ENDROOT
BRANCH   2   3
ATOM      3  N   UNL     1      12.926  69.965  47.928  1.00  0.00    -0.331 N 
ATOM      4  C   UNL     1      11.770  70.860  48.003  1.00  0.00    +0.150 C 
ATOM      5  C   UNL     1      12.812  68.727  48.703  1.00  0.00    +0.219 C 
ATOM      6  C   UNL     1      11.368  71.099  49.473  1.00  0.00    +0.135 C 
ATOM      7  C   UNL     1      11.891  68.720  49.937  1.00  0.00    +0.242 C 
ATOM      8  N   UNL     1      11.049  69.813  50.110  1.00  0.00    -0.332 N 
ATOM      9  C   UNL     1      10.264  72.143  49.604  1.00  0.00    -0.020 A 
ATOM     10  O   UNL     1      11.854  67.737  50.678  1.00  0.00    -0.273 OA
ATOM     11  C   UNL     1      10.147  69.839  51.252  1.00  0.00    +0.125 C 
ATOM     12  C   UNL     1       9.055  71.855  50.268  1.00  0.00    -0.041 A 
ATOM     13  C   UNL     1      10.458  73.441  49.097  1.00  0.00    +0.006 A 
ATOM     14  C   UNL     1       8.824  70.495  50.874  1.00  0.00    +0.057 C 
ATOM     15  C   UNL     1       8.048  72.828  50.349  1.00  0.00    +0.004 A 
ATOM     16  C   UNL     1       9.457  74.408  49.197  1.00  0.00    +0.000 A 
ATOM     17  C   UNL     1       8.248  74.098  49.814  1.00  0.00    +0.000 A 
ENDBRANCH   2   3
BRANCH   2  18
ATOM     18  C   UNL     1      14.423  68.619  46.428  1.00  0.00    +0.078 C 
ATOM     19  C   UNL     1      14.041  68.378  44.959  1.00  0.00    +0.013 C 
ATOM     20  C   UNL     1      15.953  68.564  46.585  1.00  0.00    +0.013 C 
ATOM     21  C   UNL     1      14.608  67.059  44.440  1.00  0.00    +0.001 C 
ATOM     22  C   UNL     1      16.522  67.243  46.075  1.00  0.00    +0.001 C 
ATOM     23  C   UNL     1      16.120  66.982  44.627  1.00  0.00    +0.000 C 
ENDBRANCH   2  18
TORSDOF 2
ENDMDL
MODEL 7
REMARK VINA RESULT:    -8.390      1.975      6.415
REMARK INTER + INTRA:          -9.685
REMARK INTER:                 -10.608
REMARK INTRA:                   0.924
REMARK UNBOUND:                -0.314
REMARK SMILES O=C(C1CCCCC1)N1CC(=O)N2CCc3ccccc3[C@@H]2C1
REMARK SMILES IDX 1 1 2 2 9 3 23 4 10 5 22 6 11 7 13 8 21 9 12 10 14 11 16 12
REMARK SMILES IDX 20 13 15 14 17 15 19 16 18 17 3 18 4 19 8 20 5 21 7 22 6 23
REMARK H PARENT
ROOT
ATOM      1  O   UNL     1      14.486  64.430  38.590  1.00  0.00    -0.275 OA
ATOM      2  C   UNL     1      15.175  65.357  39.019  1.00  0.00    +0.226 C 
ENDROOT
BRANCH   2   3
ATOM      3  N   UNL     1      15.141  65.708  40.365  1.00  0.00    -0.331 N 
ATOM      4  C   UNL     1      16.196  66.444  41.065  1.00  0.00    +0.150 C 
ATOM      5  C   UNL     1      13.817  65.768  40.987  1.00  0.00    +0.219 C 
ATOM      6  C   UNL     1      16.209  66.071  42.562  1.00  0.00    +0.135 C 
ATOM      7  C   UNL     1      13.732  66.008  42.505  1.00  0.00    +0.242 C 
ATOM      8  N   UNL     1      14.902  66.381  43.158  1.00  0.00    -0.332 N 
ATOM      9  C   UNL     1      17.387  66.700  43.300  1.00  0.00    -0.020 A 
ATOM     10  O   UNL     1      12.645  65.954  43.082  1.00  0.00    -0.273 OA
ATOM     11  C   UNL     1      14.864  66.637  44.590  1.00  0.00    +0.125 C 
ATOM     12  C   UNL     1      17.195  67.512  44.435  1.00  0.00    -0.041 A 
ATOM     13  C   UNL     1      18.704  66.437  42.879  1.00  0.00    +0.006 A 
ATOM     14  C   UNL     1      15.806  67.779  44.954  1.00  0.00    +0.057 C 
ATOM     15  C   UNL     1      18.297  68.098  45.075  1.00  0.00    +0.004 A 
ATOM     16  C   UNL     1      19.795  67.009  43.534  1.00  0.00    +0.000 A 
ATOM     17  C   UNL     1      19.591  67.848  44.625  1.00  0.00    +0.000 A 
ENDBRANCH   2   3
BRANCH   2  18
ATOM     18  C   UNL     1      16.131  66.116  38.095  1.00  0.00    +0.078 C 
ATOM     19  C   UNL     1      17.361  66.596  38.882  1.00  0.00    +0.013 C 
ATOM     20  C   UNL     1      16.578  65.233  36.916  1.00  0.00    +0.013 C 
ATOM     21  C   UNL     1      18.354  67.328  37.982  1.00  0.00    +0.001 C 
ATOM     22  C   UNL     1      17.564  65.965  36.009  1.00  0.00    +0.001 C 
ATOM     23  C   UNL     1      18.772  66.472  36.790  1.00  0.00    +0.000 C 
ENDBRANCH   2  18
TORSDOF 2
ENDMDL
MODEL 8
REMARK VINA RESULT:    -8.379      1.646      7.052
REMARK INTER + INTRA:          -9.673
REMARK INTER:                 -10.072
REMARK INTRA:                   0.398
REMARK UNBOUND:                -0.314
REMARK SMILES O=C(C1CCCCC1)N1CC(=O)N2CCc3ccccc3[C@@H]2C1
REMARK SMILES IDX 1 1 2 2 9 3 23 4 10 5 22 6 11 7 13 8 21 9 12 10 14 11 16 12
REMARK SMILES IDX 20 13 15 14 17 15 19 16 18 17 3 18 4 19 8 20 5 21 7 22 6 23
REMARK H PARENT
ROOT
ATOM      1  O   UNL     1      19.335  66.957  40.122  1.00  0.00    -0.275 OA
ATOM      2  C   UNL     1      18.263  66.890  40.726  1.00  0.00    +0.226 C 
ENDROOT
BRANCH   2   3
ATOM      3  N   UNL     1      18.229  66.745  42.109  1.00  0.00    -0.331 N 
ATOM      4  C   UNL     1      18.158  67.850  43.065  1.00  0.00    +0.150 C 
ATOM      5  C   UNL     1      17.769  65.449  42.613  1.00  0.00    +0.219 C 
ATOM      6  C   UNL     1      18.818  67.449  44.401  1.00  0.00    +0.135 C 
ATOM      7  C   UNL     1      17.850  65.183  44.127  1.00  0.00    +0.242 C 
ATOM      8  N   UNL     1      18.138  66.267  44.950  1.00  0.00    -0.332 N 
ATOM      9  C   UNL     1      18.900  68.620  45.375  1.00  0.00    -0.020 A 
ATOM     10  O   UNL     1      17.579  64.069  44.577  1.00  0.00    -0.273 OA
ATOM     11  C   UNL     1      18.205  66.066  46.390  1.00  0.00    +0.125 C 
ATOM     12  C   UNL     1      18.347  68.541  46.669  1.00  0.00    -0.041 A 
ATOM     13  C   UNL     1      19.580  69.796  45.008  1.00  0.00    +0.006 A 
ATOM     14  C   UNL     1      17.655  67.282  47.125  1.00  0.00    +0.057 C 
ATOM     15  C   UNL     1      18.415  69.644  47.532  1.00  0.00    +0.004 A 
ATOM     16  C   UNL     1      19.659  70.882  45.881  1.00  0.00    +0.000 A 
ATOM     17  C   UNL     1      19.067  70.810  47.138  1.00  0.00    +0.000 A 
ENDBRANCH   2   3
BRANCH   2  18
ATOM     18  C   UNL     1      16.934  67.021  39.977  1.00  0.00    +0.078 C 
ATOM     19  C   UNL     1      17.086  66.515  38.533  1.00  0.00    +0.013 C 
ATOM     20  C   UNL     1      15.818  66.236  40.689  1.00  0.00    +0.013 C 
ATOM     21  C   UNL     1      15.768  66.599  37.766  1.00  0.00    +0.001 C 
ATOM     22  C   UNL     1      14.496  66.324  39.930  1.00  0.00    +0.001 C 
ATOM     23  C   UNL     1      14.648  65.854  38.486  1.00  0.00    +0.000 C 
ENDBRANCH   2  18
TORSDOF 2
ENDMDL
MODEL 9
REMARK VINA RESULT:    -8.331      2.088      7.119
REMARK INTER + INTRA:          -9.619
REMARK INTER:                  -9.827
REMARK INTRA:                   0.208
REMARK UNBOUND:                -0.314
REMARK SMILES O=C(C1CCCCC1)N1CC(=O)N2CCc3ccccc3[C@@H]2C1
REMARK SMILES IDX 1 1 2 2 9 3 23 4 10 5 22 6 11 7 13 8 21 9 12 10 14 11 16 12
REMARK SMILES IDX 20 13 15 14 17 15 19 16 18 17 3 18 4 19 8 20 5 21 7 22 6 23
REMARK H PARENT
ROOT
ATOM      1  O   UNL     1      14.822  64.930  40.900  1.00  0.00    -0.275 OA
ATOM      2  C   UNL     1      15.633  65.853  40.996  1.00  0.00    +0.226 C 
ENDROOT
BRANCH   2   3
ATOM      3  N   UNL     1      16.230  66.157  42.215  1.00  0.00    -0.331 N 
ATOM      4  C   UNL     1      15.509  66.572  43.420  1.00  0.00    +0.150 C 
ATOM      5  C   UNL     1      17.560  65.589  42.445  1.00  0.00    +0.219 C 
ATOM      6  C   UNL     1      16.407  67.464  44.304  1.00  0.00    +0.135 C 
ATOM      7  C   UNL     1      18.326  66.011  43.712  1.00  0.00    +0.242 C 
ATOM      8  N   UNL     1      17.621  66.724  44.676  1.00  0.00    -0.332 N 
ATOM      9  C   UNL     1      15.648  68.041  45.494  1.00  0.00    -0.020 A 
ATOM     10  O   UNL     1      19.489  65.643  43.885  1.00  0.00    -0.273 OA
ATOM     11  C   UNL     1      18.300  67.126  45.899  1.00  0.00    +0.125 C 
ATOM     12  C   UNL     1      16.095  67.846  46.816  1.00  0.00    -0.041 A 
ATOM     13  C   UNL     1      14.501  68.829  45.284  1.00  0.00    +0.006 A 
ATOM     14  C   UNL     1      17.348  67.055  47.086  1.00  0.00    +0.057 C 
ATOM     15  C   UNL     1      15.360  68.367  47.891  1.00  0.00    +0.004 A 
ATOM     16  C   UNL     1      13.787  69.358  46.359  1.00  0.00    +0.000 A 
ATOM     17  C   UNL     1      14.210  69.119  47.663  1.00  0.00    +0.000 A 
ENDBRANCH   2   3
BRANCH   2  18
ATOM     18  C   UNL     1      16.052  66.659  39.763  1.00  0.00    +0.078 C 
ATOM     19  C   UNL     1      17.491  67.174  39.928  1.00  0.00    +0.013 C 
ATOM     20  C   UNL     1      15.946  65.809  38.484  1.00  0.00    +0.013 C 
ATOM     21  C   UNL     1      17.953  67.954  38.700  1.00  0.00    +0.001 C 
ATOM     22  C   UNL     1      16.400  66.588  37.252  1.00  0.00    +0.001 C 
ATOM     23  C   UNL     1      17.816  67.130  37.423  1.00  0.00    +0.000 C 
ENDBRANCH   2  18
TORSDOF 2
ENDMDL
