MODEL 1
REMARK VINA RESULT:    -6.646      0.000      0.000
REMARK INTER + INTRA:          -7.794
REMARK INTER:                  -7.423
REMARK INTRA:                  -0.371
REMARK UNBOUND:                -0.371
REMARK SMILES O=C(C1CCCCC1)N1CC(=O)N2CCc3ccccc3[C@@H]2C1
REMARK SMILES IDX 1 1 2 2 9 3 23 4 10 5 22 6 11 7 13 8 21 9 12 10 14 11 16 12
REMARK SMILES IDX 20 13 15 14 17 15 19 16 18 17 3 18 4 19 8 20 5 21 7 22 6 23
REMARK H PARENT
ROOT
ATOM      1  O   UNL     1      13.048  57.877   2.434  1.00  0.00    -0.275 OA
ATOM      2  C   UNL     1      13.345  58.096   3.610  1.00  0.00    +0.226 C 
ENDROOT
BRANCH   2   3
ATOM      3  N   UNL     1      13.046  59.317   4.206  1.00  0.00    -0.331 N 
ATOM      4  C   UNL     1      12.785  59.511   5.633  1.00  0.00    +0.150 C 
ATOM      5  C   UNL     1      13.473  60.515   3.478  1.00  0.00    +0.219 C 
ATOM      6  C   UNL     1      11.850  60.720   5.850  1.00  0.00    +0.135 C 
ATOM      7  C   UNL     1      13.041  61.890   4.018  1.00  0.00    +0.242 C 
ATOM      8  N   UNL     1      12.469  61.927   5.285  1.00  0.00    -0.332 N 
ATOM      9  C   UNL     1      11.432  60.867   7.310  1.00  0.00    -0.020 A 
ATOM     10  O   UNL     1      13.284  62.913   3.376  1.00  0.00    -0.273 OA
ATOM     11  C   UNL     1      12.064  63.209   5.843  1.00  0.00    +0.125 C 
ATOM     12  C   UNL     1      11.652  62.063   8.021  1.00  0.00    -0.041 A 
ATOM     13  C   UNL     1      10.769  59.811   7.962  1.00  0.00    +0.006 A 
ATOM     14  C   UNL     1      12.311  63.239   7.347  1.00  0.00    +0.057 C 
ATOM     15  C   UNL     1      11.280  62.158   9.370  1.00  0.00    +0.004 A 
ATOM     16  C   UNL     1      10.387  59.922   9.300  1.00  0.00    +0.000 A 
ATOM     17  C   UNL     1      10.651  61.091  10.006  1.00  0.00    +0.000 A 
ENDBRANCH   2   3
BRANCH   2  18
ATOM     18  C   UNL     1      14.000  57.011   4.468  1.00  0.00    +0.078 C 
ATOM     19  C   UNL     1      13.568  55.618   3.983  1.00  0.00    +0.013 C 
ATOM     20  C   UNL     1      15.535  57.124   4.427  1.00  0.00    +0.013 C 
ATOM     21  C   UNL     1      14.232  54.509   4.796  1.00  0.00    +0.001 C 
ATOM     22  C   UNL     1      16.202  56.022   5.245  1.00  0.00    +0.001 C 
ATOM     23  C   UNL     1      15.752  54.637   4.791  1.00  0.00    +0.000 C 
ENDBRANCH   2  18
TORSDOF 2
ENDMDL
MODEL 2
REMARK VINA RESULT:    -6.373      6.735     11.715
REMARK INTER + INTRA:          -7.489
REMARK INTER:                  -7.200
REMARK INTRA:                  -0.289
REMARK UNBOUND:                -0.371
REMARK SMILES O=C(C1CCCCC1)N1CC(=O)N2CCc3ccccc3[C@@H]2C1
REMARK SMILES IDX 1 1 2 2 9 3 23 4 10 5 22 6 11 7 13 8 21 9 12 10 14 11 16 12
REMARK SMILES IDX 20 13 15 14 17 15 19 16 18 17 3 18 4 19 8 20 5 21 7 22 6 23
REMARK H PARENT
ROOT
ATOM      1  O   UNL     1      18.000  54.230   6.688  1.00  0.00    -0.275 OA
ATOM      2  C   UNL     1      17.464  53.447   5.903  1.00  0.00    +0.226 C 
ENDROOT
BRANCH   2   3
ATOM      3  N   UNL     1      17.759  52.088   5.936  1.00  0.00    -0.331 N 
ATOM      4  C   UNL     1      18.232  51.362   7.116  1.00  0.00    +0.150 C 
ATOM      5  C   UNL     1      17.130  51.263   4.903  1.00  0.00    +0.219 C 
ATOM      6  C   UNL     1      19.093  50.153   6.695  1.00  0.00    +0.135 C 
ATOM      7  C   UNL     1      17.535  49.781   4.803  1.00  0.00    +0.242 C 
ATOM      8  N   UNL     1      18.300  49.258   5.840  1.00  0.00    -0.332 N 
ATOM      9  C   UNL     1      19.729  49.456   7.893  1.00  0.00    -0.020 A 
ATOM     10  O   UNL     1      17.113  49.083   3.880  1.00  0.00    -0.273 OA
ATOM     11  C   UNL     1      18.689  47.856   5.797  1.00  0.00    +0.125 C 
ATOM     12  C   UNL     1      19.536  48.081   8.133  1.00  0.00    -0.041 A 
ATOM     13  C   UNL     1      20.569  50.176   8.763  1.00  0.00    +0.006 A 
ATOM     14  C   UNL     1      18.687  47.258   7.198  1.00  0.00    +0.057 C 
ATOM     15  C   UNL     1      20.112  47.475   9.259  1.00  0.00    +0.004 A 
ATOM     16  C   UNL     1      21.153  49.560   9.871  1.00  0.00    +0.000 A 
ATOM     17  C   UNL     1      20.916  48.213  10.124  1.00  0.00    +0.000 A 
ENDBRANCH   2   3
BRANCH   2  18
ATOM     18  C   UNL     1      16.413  53.937   4.902  1.00  0.00    +0.078 C 
ATOM     19  C   UNL     1      15.047  54.076   5.593  1.00  0.00    +0.013 C 
ATOM     20  C   UNL     1      16.825  55.285   4.284  1.00  0.00    +0.013 C 
ATOM     21  C   UNL     1      13.982  54.597   4.631  1.00  0.00    +0.001 C 
ATOM     22  C   UNL     1      15.765  55.805   3.315  1.00  0.00    +0.001 C 
ATOM     23  C   UNL     1      14.399  55.915   3.986  1.00  0.00    +0.000 C 
ENDBRANCH   2  18
TORSDOF 2
ENDMDL
MODEL 3
REMARK VINA RESULT:    -6.367      6.969     12.147
REMARK INTER + INTRA:          -7.483
REMARK INTER:                  -7.164
REMARK INTRA:                  -0.318
REMARK UNBOUND:                -0.371
REMARK SMILES O=C(C1CCCCC1)N1CC(=O)N2CCc3ccccc3[C@@H]2C1
REMARK SMILES IDX 1 1 2 2 9 3 23 4 10 5 22 6 11 7 13 8 21 9 12 10 14 11 16 12
REMARK SMILES IDX 20 13 15 14 17 15 19 16 18 17 3 18 4 19 8 20 5 21 7 22 6 23
REMARK H PARENT
ROOT
ATOM      1  O   UNL     1      18.948  53.300   3.997  1.00  0.00    -0.275 OA
ATOM      2  C   UNL     1      18.201  52.912   4.897  1.00  0.00    +0.226 C 
ENDROOT
BRANCH   2   3
ATOM      3  N   UNL     1      18.497  51.766   5.627  1.00  0.00    -0.331 N 
ATOM      4  C   UNL     1      18.236  50.396   5.180  1.00  0.00    +0.150 C 
ATOM      5  C   UNL     1      19.529  51.903   6.657  1.00  0.00    +0.219 C 
ATOM      6  C   UNL     1      18.012  49.468   6.392  1.00  0.00    +0.135 C 
ATOM      7  C   UNL     1      19.792  50.708   7.591  1.00  0.00    +0.242 C 
ATOM      8  N   UNL     1      19.200  49.495   7.258  1.00  0.00    -0.332 N 
ATOM      9  C   UNL     1      17.590  48.065   5.970  1.00  0.00    -0.020 A 
ATOM     10  O   UNL     1      20.571  50.821   8.539  1.00  0.00    -0.273 OA
ATOM     11  C   UNL     1      19.438  48.334   8.102  1.00  0.00    +0.125 C 
ATOM     12  C   UNL     1      18.309  46.925   6.380  1.00  0.00    -0.041 A 
ATOM     13  C   UNL     1      16.431  47.882   5.192  1.00  0.00    +0.006 A 
ATOM     14  C   UNL     1      19.526  47.068   7.257  1.00  0.00    +0.057 C 
ATOM     15  C   UNL     1      17.911  45.650   5.953  1.00  0.00    +0.004 A 
ATOM     16  C   UNL     1      16.032  46.607   4.787  1.00  0.00    +0.000 A 
ATOM     17  C   UNL     1      16.778  45.493   5.158  1.00  0.00    +0.000 A 
ENDBRANCH   2   3
BRANCH   2  18
ATOM     18  C   UNL     1      16.951  53.711   5.275  1.00  0.00    +0.078 C 
ATOM     19  C   UNL     1      16.842  54.971   4.402  1.00  0.00    +0.013 C 
ATOM     20  C   UNL     1      15.679  52.857   5.120  1.00  0.00    +0.013 C 
ATOM     21  C   UNL     1      15.586  55.776   4.730  1.00  0.00    +0.001 C 
ATOM     22  C   UNL     1      14.422  53.656   5.455  1.00  0.00    +0.001 C 
ATOM     23  C   UNL     1      14.325  54.925   4.614  1.00  0.00    +0.000 C 
ENDBRANCH   2  18
TORSDOF 2
ENDMDL
MODEL 4
REMARK VINA RESULT:    -6.292      4.892      6.837
REMARK INTER + INTRA:          -7.399
REMARK INTER:                  -7.071
REMARK INTRA:                  -0.328
REMARK UNBOUND:                -0.371
REMARK SMILES O=C(C1CCCCC1)N1CC(=O)N2CCc3ccccc3[C@@H]2C1
REMARK SMILES IDX 1 1 2 2 9 3 23 4 10 5 22 6 11 7 13 8 21 9 12 10 14 11 16 12
REMARK SMILES IDX 20 13 15 14 17 15 19 16 18 17 3 18 4 19 8 20 5 21 7 22 6 23
REMARK H PARENT
ROOT
ATOM      1  O   UNL     1      14.528  58.167   4.193  1.00  0.00    -0.275 OA
ATOM      2  C   UNL     1      14.448  57.269   3.352  1.00  0.00    +0.226 C 
ENDROOT
BRANCH   2   3
ATOM      3  N   UNL     1      13.888  57.510   2.102  1.00  0.00    -0.331 N 
ATOM      4  C   UNL     1      13.958  58.783   1.383  1.00  0.00    +0.150 C 
ATOM      5  C   UNL     1      13.635  56.332   1.268  1.00  0.00    +0.219 C 
ATOM      6  C   UNL     1      12.735  58.946   0.456  1.00  0.00    +0.135 C 
ATOM      7  C   UNL     1      12.884  56.526  -0.061  1.00  0.00    +0.242 C 
ATOM      8  N   UNL     1      12.692  57.831  -0.501  1.00  0.00    -0.332 N 
ATOM      9  C   UNL     1      12.690  60.323  -0.198  1.00  0.00    -0.020 A 
ATOM     10  O   UNL     1      12.554  55.549  -0.736  1.00  0.00    -0.273 OA
ATOM     11  C   UNL     1      12.005  58.061  -1.763  1.00  0.00    +0.125 C 
ATOM     12  C   UNL     1      12.631  60.470  -1.598  1.00  0.00    -0.041 A 
ATOM     13  C   UNL     1      12.660  61.482   0.599  1.00  0.00    +0.006 A 
ATOM     14  C   UNL     1      12.608  59.256  -2.491  1.00  0.00    +0.057 C 
ATOM     15  C   UNL     1      12.618  61.750  -2.171  1.00  0.00    +0.004 A 
ATOM     16  C   UNL     1      12.629  62.751   0.020  1.00  0.00    +0.000 A 
ATOM     17  C   UNL     1      12.619  62.885  -1.365  1.00  0.00    +0.000 A 
ENDBRANCH   2   3
BRANCH   2  18
ATOM     18  C   UNL     1      15.014  55.876   3.638  1.00  0.00    +0.078 C 
ATOM     19  C   UNL     1      16.500  55.975   4.022  1.00  0.00    +0.013 C 
ATOM     20  C   UNL     1      14.230  55.180   4.765  1.00  0.00    +0.013 C 
ATOM     21  C   UNL     1      17.088  54.604   4.349  1.00  0.00    +0.001 C 
ATOM     22  C   UNL     1      14.810  53.805   5.088  1.00  0.00    +0.001 C 
ATOM     23  C   UNL     1      16.292  53.893   5.439  1.00  0.00    +0.000 C 
ENDBRANCH   2  18
TORSDOF 2
ENDMDL
MODEL 5
REMARK VINA RESULT:    -6.245      2.277      7.355
REMARK INTER + INTRA:          -7.346
REMARK INTER:                  -7.013
REMARK INTRA:                  -0.333
REMARK UNBOUND:                -0.371
REMARK SMILES O=C(C1CCCCC1)N1CC(=O)N2CCc3ccccc3[C@@H]2C1
REMARK SMILES IDX 1 1 2 2 9 3 23 4 10 5 22 6 11 7 13 8 21 9 12 10 14 11 16 12
REMARK SMILES IDX 20 13 15 14 17 15 19 16 18 17 3 18 4 19 8 20 5 21 7 22 6 23
REMARK H PARENT
ROOT
ATOM      1  O   UNL     1      11.944  61.309   5.335  1.00  0.00    -0.275 OA
ATOM      2  C   UNL     1      12.338  60.426   6.099  1.00  0.00    +0.226 C 
ENDROOT
BRANCH   2   3
ATOM      3  N   UNL     1      13.060  59.337   5.621  1.00  0.00    -0.331 N 
ATOM      4  C   UNL     1      13.406  59.112   4.216  1.00  0.00    +0.150 C 
ATOM      5  C   UNL     1      13.908  58.645   6.594  1.00  0.00    +0.219 C 
ATOM      6  C   UNL     1      13.549  57.602   3.932  1.00  0.00    +0.135 C 
ATOM      7  C   UNL     1      14.614  57.348   6.156  1.00  0.00    +0.242 C 
ATOM      8  N   UNL     1      14.590  57.035   4.802  1.00  0.00    -0.332 N 
ATOM      9  C   UNL     1      13.761  57.315   2.449  1.00  0.00    -0.020 A 
ATOM     10  O   UNL     1      15.245  56.678   6.975  1.00  0.00    -0.273 OA
ATOM     11  C   UNL     1      15.261  55.829   4.341  1.00  0.00    +0.125 C 
ATOM     12  C   UNL     1      14.875  56.583   1.994  1.00  0.00    -0.041 A 
ATOM     13  C   UNL     1      12.808  57.742   1.506  1.00  0.00    +0.006 A 
ATOM     14  C   UNL     1      15.894  56.059   2.973  1.00  0.00    +0.057 C 
ATOM     15  C   UNL     1      15.056  56.358   0.621  1.00  0.00    +0.004 A 
ATOM     16  C   UNL     1      12.988  57.498   0.144  1.00  0.00    +0.000 A 
ATOM     17  C   UNL     1      14.116  56.816  -0.299  1.00  0.00    +0.000 A 
ENDBRANCH   2   3
BRANCH   2  18
ATOM     18  C   UNL     1      12.094  60.529   7.607  1.00  0.00    +0.078 C 
ATOM     19  C   UNL     1      12.455  61.937   8.108  1.00  0.00    +0.013 C 
ATOM     20  C   UNL     1      10.628  60.213   7.953  1.00  0.00    +0.013 C 
ATOM     21  C   UNL     1      12.190  62.086   9.605  1.00  0.00    +0.001 C 
ATOM     22  C   UNL     1      10.361  60.353   9.450  1.00  0.00    +0.001 C 
ATOM     23  C   UNL     1      10.748  61.738   9.960  1.00  0.00    +0.000 C 
ENDBRANCH   2  18
TORSDOF 2
ENDMDL
MODEL 6
REMARK VINA RESULT:    -6.166      4.950      7.863
REMARK INTER + INTRA:          -7.258
REMARK INTER:                  -6.890
REMARK INTRA:                  -0.368
REMARK UNBOUND:                -0.371
REMARK SMILES O=C(C1CCCCC1)N1CC(=O)N2CCc3ccccc3[C@@H]2C1
REMARK SMILES IDX 1 1 2 2 9 3 23 4 10 5 22 6 11 7 13 8 21 9 12 10 14 11 16 12
REMARK SMILES IDX 20 13 15 14 17 15 19 16 18 17 3 18 4 19 8 20 5 21 7 22 6 23
REMARK H PARENT
ROOT
ATOM      1  O   UNL     1      15.280  58.083   4.050  1.00  0.00    -0.275 OA
ATOM      2  C   UNL     1      14.956  57.158   3.302  1.00  0.00    +0.226 C 
ENDROOT
BRANCH   2   3
ATOM      3  N   UNL     1      14.256  57.403   2.125  1.00  0.00    -0.331 N 
ATOM      4  C   UNL     1      13.783  56.371   1.201  1.00  0.00    +0.150 C 
ATOM      5  C   UNL     1      13.555  58.686   2.043  1.00  0.00    +0.219 C 
ATOM      6  C   UNL     1      13.703  56.929  -0.235  1.00  0.00    +0.135 C 
ATOM      7  C   UNL     1      12.888  59.071   0.710  1.00  0.00    +0.242 C 
ATOM      8  N   UNL     1      12.793  58.083  -0.263  1.00  0.00    -0.332 N 
ATOM      9  C   UNL     1      13.358  55.847  -1.253  1.00  0.00    -0.020 A 
ATOM     10  O   UNL     1      12.386  60.187   0.567  1.00  0.00    -0.273 OA
ATOM     11  C   UNL     1      12.151  58.396  -1.532  1.00  0.00    +0.125 C 
ATOM     12  C   UNL     1      12.250  55.972  -2.113  1.00  0.00    -0.041 A 
ATOM     13  C   UNL     1      14.182  54.713  -1.382  1.00  0.00    +0.006 A 
ATOM     14  C   UNL     1      11.370  57.194  -2.047  1.00  0.00    +0.057 C 
ATOM     15  C   UNL     1      11.943  54.947  -3.020  1.00  0.00    +0.004 A 
ATOM     16  C   UNL     1      13.879  53.707  -2.300  1.00  0.00    +0.000 A 
ATOM     17  C   UNL     1      12.754  53.819  -3.111  1.00  0.00    +0.000 A 
ENDBRANCH   2   3
BRANCH   2  18
ATOM     18  C   UNL     1      15.362  55.716   3.618  1.00  0.00    +0.078 C 
ATOM     19  C   UNL     1      16.824  55.668   4.092  1.00  0.00    +0.013 C 
ATOM     20  C   UNL     1      14.445  55.106   4.693  1.00  0.00    +0.013 C 
ATOM     21  C   UNL     1      17.253  54.247   4.450  1.00  0.00    +0.001 C 
ATOM     22  C   UNL     1      14.866  53.681   5.047  1.00  0.00    +0.001 C 
ATOM     23  C   UNL     1      16.325  53.622   5.487  1.00  0.00    +0.000 C 
ENDBRANCH   2  18
TORSDOF 2
ENDMDL
MODEL 7
REMARK VINA RESULT:    -6.147      4.693      7.015
REMARK INTER + INTRA:          -7.237
REMARK INTER:                  -6.912
REMARK INTRA:                  -0.325
REMARK UNBOUND:                -0.371
REMARK SMILES O=C(C1CCCCC1)N1CC(=O)N2CCc3ccccc3[C@@H]2C1
REMARK SMILES IDX 1 1 2 2 9 3 23 4 10 5 22 6 11 7 13 8 21 9 12 10 14 11 16 12
REMARK SMILES IDX 20 13 15 14 17 15 19 16 18 17 3 18 4 19 8 20 5 21 7 22 6 23
REMARK H PARENT
ROOT
ATOM      1  O   UNL     1      12.334  54.889  -1.085  1.00  0.00    -0.275 OA
ATOM      2  C   UNL     1      12.263  56.118  -1.123  1.00  0.00    +0.226 C 
ENDROOT
BRANCH   2   3
ATOM      3  N   UNL     1      12.702  56.893  -0.055  1.00  0.00    -0.331 N 
ATOM      4  C   UNL     1      13.516  56.400   1.058  1.00  0.00    +0.150 C 
ATOM      5  C   UNL     1      12.763  58.338  -0.284  1.00  0.00    +0.219 C 
ATOM      6  C   UNL     1      13.245  57.230   2.331  1.00  0.00    +0.135 C 
ATOM      7  C   UNL     1      13.101  59.253   0.907  1.00  0.00    +0.242 C 
ATOM      8  N   UNL     1      13.553  58.643   2.072  1.00  0.00    -0.332 N 
ATOM      9  C   UNL     1      13.958  56.657   3.551  1.00  0.00    -0.020 A 
ATOM     10  O   UNL     1      13.052  60.478   0.782  1.00  0.00    -0.273 OA
ATOM     11  C   UNL     1      13.904  59.471   3.216  1.00  0.00    +0.125 C 
ATOM     12  C   UNL     1      14.838  57.440   4.324  1.00  0.00    -0.041 A 
ATOM     13  C   UNL     1      13.709  55.333   3.957  1.00  0.00    +0.006 A 
ATOM     14  C   UNL     1      15.096  58.880   3.959  1.00  0.00    +0.057 C 
ATOM     15  C   UNL     1      15.500  56.877   5.425  1.00  0.00    +0.004 A 
ATOM     16  C   UNL     1      14.358  54.787   5.065  1.00  0.00    +0.000 A 
ATOM     17  C   UNL     1      15.262  55.555   5.792  1.00  0.00    +0.000 A 
ENDBRANCH   2   3
BRANCH   2  18
ATOM     18  C   UNL     1      11.740  56.834  -2.372  1.00  0.00    +0.078 C 
ATOM     19  C   UNL     1      12.370  56.225  -3.635  1.00  0.00    +0.013 C 
ATOM     20  C   UNL     1      10.206  56.746  -2.459  1.00  0.00    +0.013 C 
ATOM     21  C   UNL     1      11.843  56.894  -4.903  1.00  0.00    +0.001 C 
ATOM     22  C   UNL     1       9.675  57.420  -3.722  1.00  0.00    +0.001 C 
ATOM     23  C   UNL     1      10.320  56.843  -4.978  1.00  0.00    +0.000 C 
ENDBRANCH   2  18
TORSDOF 2
ENDMDL
MODEL 8
REMARK VINA RESULT:    -6.091      1.258      1.429
REMARK INTER + INTRA:          -7.174
REMARK INTER:                  -6.791
REMARK INTRA:                  -0.383
REMARK UNBOUND:                -0.371
REMARK SMILES O=C(C1CCCCC1)N1CC(=O)N2CCc3ccccc3[C@@H]2C1
REMARK SMILES IDX 1 1 2 2 9 3 23 4 10 5 22 6 11 7 13 8 21 9 12 10 14 11 16 12
REMARK SMILES IDX 20 13 15 14 17 15 19 16 18 17 3 18 4 19 8 20 5 21 7 22 6 23
REMARK H PARENT
ROOT
ATOM      1  O   UNL     1      16.212  57.983   3.163  1.00  0.00    -0.275 OA
ATOM      2  C   UNL     1      15.396  57.848   4.077  1.00  0.00    +0.226 C 
ENDROOT
BRANCH   2   3
ATOM      3  N   UNL     1      14.487  58.857   4.378  1.00  0.00    -0.331 N 
ATOM      4  C   UNL     1      14.078  59.240   5.730  1.00  0.00    +0.150 C 
ATOM      5  C   UNL     1      14.293  59.883   3.351  1.00  0.00    +0.219 C 
ATOM      6  C   UNL     1      12.650  59.824   5.716  1.00  0.00    +0.135 C 
ATOM      7  C   UNL     1      13.194  60.938   3.570  1.00  0.00    +0.242 C 
ATOM      8  N   UNL     1      12.607  60.995   4.829  1.00  0.00    -0.332 N 
ATOM      9  C   UNL     1      12.127  60.096   7.123  1.00  0.00    -0.020 A 
ATOM     10  O   UNL     1      12.926  61.748   2.681  1.00  0.00    -0.273 OA
ATOM     11  C   UNL     1      11.577  61.991   5.087  1.00  0.00    +0.125 C 
ATOM     12  C   UNL     1      11.670  61.374   7.502  1.00  0.00    -0.041 A 
ATOM     13  C   UNL     1      12.050  59.051   8.061  1.00  0.00    +0.006 A 
ATOM     14  C   UNL     1      11.684  62.512   6.515  1.00  0.00    +0.057 C 
ATOM     15  C   UNL     1      11.220  61.600   8.812  1.00  0.00    +0.004 A 
ATOM     16  C   UNL     1      11.584  59.281   9.356  1.00  0.00    +0.000 A 
ATOM     17  C   UNL     1      11.179  60.557   9.734  1.00  0.00    +0.000 A 
ENDBRANCH   2   3
BRANCH   2  18
ATOM     18  C   UNL     1      15.321  56.542   4.873  1.00  0.00    +0.078 C 
ATOM     19  C   UNL     1      14.172  55.666   4.348  1.00  0.00    +0.013 C 
ATOM     20  C   UNL     1      16.648  55.767   4.790  1.00  0.00    +0.013 C 
ATOM     21  C   UNL     1      14.091  54.338   5.098  1.00  0.00    +0.001 C 
ATOM     22  C   UNL     1      16.573  54.442   5.545  1.00  0.00    +0.001 C 
ATOM     23  C   UNL     1      15.414  53.581   5.052  1.00  0.00    +0.000 C 
ENDBRANCH   2  18
TORSDOF 2
ENDMDL
MODEL 9
REMARK VINA RESULT:    -6.004      2.952      4.432
REMARK INTER + INTRA:          -7.076
REMARK INTER:                  -6.717
REMARK INTRA:                  -0.360
REMARK UNBOUND:                -0.371
REMARK SMILES O=C(C1CCCCC1)N1CC(=O)N2CCc3ccccc3[C@@H]2C1
REMARK SMILES IDX 1 1 2 2 9 3 23 4 10 5 22 6 11 7 13 8 21 9 12 10 14 11 16 12
REMARK SMILES IDX 20 13 15 14 17 15 19 16 18 17 3 18 4 19 8 20 5 21 7 22 6 23
REMARK H PARENT
ROOT
ATOM      1  O   UNL     1      16.772  57.771   3.196  1.00  0.00    -0.275 OA
ATOM      2  C   UNL     1      15.632  57.734   3.663  1.00  0.00    +0.226 C 
ENDROOT
BRANCH   2   3
ATOM      3  N   UNL     1      15.415  57.862   5.031  1.00  0.00    -0.331 N 
ATOM      4  C   UNL     1      14.109  58.077   5.655  1.00  0.00    +0.150 C 
ATOM      5  C   UNL     1      16.441  57.290   5.905  1.00  0.00    +0.219 C 
ATOM      6  C   UNL     1      14.268  58.842   6.986  1.00  0.00    +0.135 C 
ATOM      7  C   UNL     1      16.326  57.530   7.421  1.00  0.00    +0.242 C 
ATOM      8  N   UNL     1      15.137  58.077   7.891  1.00  0.00    -0.332 N 
ATOM      9  C   UNL     1      12.922  59.219   7.596  1.00  0.00    -0.020 A 
ATOM     10  O   UNL     1      17.226  57.163   8.178  1.00  0.00    -0.273 OA
ATOM     11  C   UNL     1      14.976  58.302   9.321  1.00  0.00    +0.125 C 
ATOM     12  C   UNL     1      12.574  58.835   8.906  1.00  0.00    -0.041 A 
ATOM     13  C   UNL     1      12.013  60.008   6.866  1.00  0.00    +0.006 A 
ATOM     14  C   UNL     1      13.537  58.035   9.745  1.00  0.00    +0.057 C 
ATOM     15  C   UNL     1      11.318  59.174   9.429  1.00  0.00    +0.004 A 
ATOM     16  C   UNL     1      10.773  60.356   7.401  1.00  0.00    +0.000 A 
ATOM     17  C   UNL     1      10.421  59.930   8.678  1.00  0.00    +0.000 A 
ENDBRANCH   2   3
BRANCH   2  18
ATOM     18  C   UNL     1      14.414  57.603   2.744  1.00  0.00    +0.078 C 
ATOM     19  C   UNL     1      14.182  58.916   1.979  1.00  0.00    +0.013 C 
ATOM     20  C   UNL     1      14.594  56.444   1.748  1.00  0.00    +0.013 C 
ATOM     21  C   UNL     1      12.994  58.809   1.026  1.00  0.00    +0.001 C 
ATOM     22  C   UNL     1      13.404  56.328   0.798  1.00  0.00    +0.001 C 
ATOM     23  C   UNL     1      13.148  57.638   0.060  1.00  0.00    +0.000 C 
ENDBRANCH   2  18
TORSDOF 2
ENDMDL
